_chemical_formula_sum                    'Cs0.25 Cu0.5 I0.75'
_chemical_formula_weight                 160.2
_chemical_absolute_configuration         .
_symmetry_cell_setting                   orthorhombic
_symmetry_space_group_name_H-M           'C m c m'
_symmetry_space_group_name_Hall          '-C -2x;-2yc;-2zc'
_symmetry_Int_Tables_number              63
loop_
 _space_group_symop_id
 _space_group_symop_operation_xyz
 1   x,y,z
 2   -x,-y,z+1/2
 3   -x,y,-z+1/2
 4   x,-y,-z
 5   -x,-y,-z
 6   x,y,-z+1/2
 7   x,-y,z+1/2
 8   -x,y,z
 9   x+1/2,y+1/2,z
 10  -x+1/2,-y+1/2,z+1/2
 11  -x+1/2,y+1/2,-z+1/2
 12  x+1/2,-y+1/2,-z
 13  -x+1/2,-y+1/2,-z
 14  x+1/2,y+1/2,-z+1/2
 15  x+1/2,-y+1/2,z+1/2
 16  -x+1/2,y+1/2,z
_cell_length_a                           10.50320(10)
_cell_length_b                           13.0893(2)
_cell_length_c                           6.06970(10)
_cell_angle_alpha                        90
_cell_angle_beta                         90
_cell_angle_gamma                        90
_cell_volume                             834.46(2)
_cell_formula_units_Z                    16
_exptl_crystal_density_diffrn            5.1
_exptl_crystal_F_000                     1088
_exptl_absorpt_coefficient_mu            5.456
_cell_measurement_temperature            293
_diffrn_ambient_temperature              293
_diffrn_radiation_probe                  X-ray
_diffrn_radiation_source                 ?
_diffrn_radiation_type                   'X-ray'
_diffrn_radiation_wavelength             0.2481
_diffrn_radiation_monochromator          ?
_diffrn_measurement_device               ?
_diffrn_measurement_device_type          ?
_diffrn_measurement_method               ?
_diffrn_reflns_number                    13661
_diffrn_reflns_theta_min                 1.46
_diffrn_reflns_theta_max                 9.65
_diffrn_reflns_theta_full                9.65
_diffrn_measured_fraction_theta_full     1
_diffrn_measured_fraction_theta_max      1
_diffrn_reflns_av_R_equivalents          0.0729
_diffrn_reflns_av_unetI/netI             0.0038
_diffrn_reflns_limit_h_min               -14
_diffrn_reflns_limit_h_max               14
_diffrn_reflns_limit_k_min               -17
_diffrn_reflns_limit_k_max               17
_diffrn_reflns_limit_l_min               -8
_diffrn_reflns_limit_l_max               8
_reflns_number_total                     614
_reflns_number_gt                        607
_reflns_threshold_expression             'I>2\s(I)'
_refine_ls_R_factor_gt                   0.0115
_refine_ls_wR_factor_gt                  0.0305
_refine_ls_R_factor_all                  0.0116
_refine_ls_wR_factor_ref                 0.0306
_refine_ls_goodness_of_fit_ref           1.2498
_refine_ls_goodness_of_fit_gt            1.2543
_refine_ls_number_reflns                 614
_refine_ls_number_parameters             37
_refine_ls_weighting_scheme              sigma
_refine_ls_weighting_details             'calc w=1/[\s^2^(Fo^2^)+(0.02P)^2^+0.0000P] where P=(Fo^2^+2Fc^2^)/3'
_refine_ls_shift/su_max                  0.0044
_refine_ls_shift/su_mean                 0.0010
_refine_diff_density_max                 0.31
_refine_diff_density_min                 -0.34
_refine_ls_extinction_method
 'B-C type 1 Gaussian isotropic (Becker & Coppens, 1974)'
_refine_ls_number_constraints            0
_refine_ls_number_restraints             0
_refine_ls_structure_factor_coef         Fsqd
_refine_ls_extinction_coef               910(120)
loop_
 _atom_type_symbol
 _atom_type_scat_dispersion_real
 _atom_type_scat_dispersion_imag
 _atom_type_scat_source
 Cs  -0.2815  2.0398
 'International Tables Vol C tables 4.2.6.8 and 6.1.1.1'
 Cu   0.0994  0.1762
 'International Tables Vol C tables 4.2.6.8 and 6.1.1.1'
 I   -0.1121  1.7896
 'International Tables Vol C tables 4.2.6.8 and 6.1.1.1'
loop_
 _atom_site_label
 _atom_site_type_symbol
 _atom_site_fract_x
 _atom_site_fract_y
 _atom_site_fract_z
 _atom_site_adp_type
 _atom_site_U_iso_or_equiv
 _atom_site_site_symmetry_multiplicity
 _atom_site_occupancy
 _atom_site_calc_flag
 _atom_site_refinement_flags
 _atom_site_disorder_assembly
 _atom_site_disorder_group
  i01 I 0.5 0.62094(3) 1.25 Uani 0.02290(7) 4 1 d . . .
  i002 I 0.21713(4) 0.62031(3) 0.75 Uani 0.03137(6) 8 1 d . . .
  cs00 Cs 0.5 0.82866(4) 1.75 Uani 0.03797(8) 4 1 d . . .
  cu04 Cu 0.35159(7) 0.5 1 Uani 0.03735(11) 8 1 d . . .
loop_
 _atom_site_aniso_label
 _atom_site_aniso_type_symbol
 _atom_site_aniso_U_11
 _atom_site_aniso_U_22
 _atom_site_aniso_U_33
 _atom_site_aniso_U_12
 _atom_site_aniso_U_13
 _atom_site_aniso_U_23
 i01 I 0.02444(12) 0.02024(11) 0.02402(12) 0 0 0
 i002 I 0.03110(12) 0.03916(11) 0.02387(11) 0.01275(5) 0 0
 cs00 Cs 0.03987(15) 0.05158(15) 0.02245(11) 0 0 0
 cu04 Cu 0.03549(19) 0.03262(18) 0.0439(2) 0 0 0.00584(11)
loop_
 _jana_atom_site_ADP_C_label
 _jana_atom_site_ADP_C_type_symbol
 _jana_atom_site_ADP_C_111
 _jana_atom_site_ADP_C_112
 _jana_atom_site_ADP_C_113
 _jana_atom_site_ADP_C_122
 _jana_atom_site_ADP_C_123
 _jana_atom_site_ADP_C_133
 _jana_atom_site_ADP_C_222
 _jana_atom_site_ADP_C_223
 _jana_atom_site_ADP_C_233
 _jana_atom_site_ADP_C_333
 i01 I 0 -0.00002(2) 0 0 0 0 -0.00001(3) 0 -0.00018(6) 0
 i002 I -0.00009(6) -0.00011(2) 0 -0.000042(19) 0 -0.00026(8) -0.00012(3)
 0 -0.00008(6) 0
 cs00 Cs 0 -0.00030(4) 0 0 0 0 0.00015(5) 0 0.00010(9) 0
 cu04 Cu -0.00049(10) 0 0 -0.00024(3) -0.00163(7) -0.00276(18) 0 0
 0 0
loop_
 _refln_index_h
 _refln_index_k
 _refln_index_l
 _refln_F_squared_calc
 _refln_F_squared_meas
 _refln_F_squared_sigma
 _refln_observed_status
   4   0   0 149427.00 145033.00    282.61 o
   6   0   0  71316.10  66306.90    192.28 o
   8   0   0  42621.40  42769.50    235.92 o
  10   0   0  18415.50  18620.20    178.40 o
  12   0   0    727.33    743.92     37.13 o
  14   0   0  20823.90  20726.60    182.56 o
   3   1   0    161.41    198.74      9.71 o
   5   1   0  20588.00  20266.30     83.48 o
   7   1   0  85788.60  82417.00    227.37 o
   9   1   0  13631.40  13207.40     87.90 o
  11   1   0   2459.54   2584.13     44.31 o
  13   1   0    563.91    607.20     22.79 o
   2   2   0  28576.60  29036.10     99.06 o
   4   2   0  43466.10  43018.80    110.46 o
   6   2   0   2127.76   2058.12     32.08 o
   8   2   0    275.42    297.48     15.19 o
  10   2   0   5571.85   5635.29     59.53 o
  12   2   0    407.78    459.93     20.25 o
  14   2   0    248.22    259.50     16.03 o
   1   3   0  52024.40  49580.10    117.65 o
   3   3   0  51121.00  50491.50    121.53 o
   5   3   0  27681.30  28240.30     98.41 o
   7   3   0     23.10     48.10      6.33 o
   9   3   0   5198.87   5361.77     64.59 o
  11   3   0   7526.39   7682.53     71.78 o
  13   3   0   2812.54   3014.57     51.07 o
   0   4   0 149217.00 153731.00    304.34 o
   2   4   0    109.48    132.49      6.75 o
   4   4   0 252143.00 241935.00    290.02 o
   6   4   0     25.91     33.76      4.64 o
   8   4   0   6186.04   6424.66     72.63 o
  10   4   0  40134.30  42107.50    170.72 o
  12   4   0     28.77     24.05      5.06 o
   1   5   0   4141.27   4285.15     33.79 o
   3   5   0 225260.00 223240.00    329.03 o
   5   5   0     69.18     84.39      6.75 o
   7   5   0  34069.90  35352.00    140.71 o
   9   5   0    815.56    847.33     23.63 o
  11   5   0  22885.20  25680.80    147.56 o
  13   5   0     90.16    107.60     10.13 o
   0   6   0  48211.30  50279.20    179.54 o
   2   6   0   9669.62  10118.60     71.45 o
   4   6   0    917.25    881.57     19.83 o
   6   6   0  17386.10  17909.70     90.93 o
   8   6   0  11184.90  11007.90     81.96 o
  10   6   0   1821.99   2034.09     43.05 o
  12   6   0   2354.17   2303.80     48.11 o
   1   7   0  10328.50   9678.90     69.75 o
   3   7   0    394.80    392.01     16.46 o
   5   7   0   2648.57   2523.29     38.41 o
   7   7   0  34269.00  33671.60    165.22 o
   9   7   0   5092.77   5728.58     65.01 o
  11   7   0   1808.28   1794.36     44.73 o
  13   7   0     34.21     35.44      5.49 o
   0   8   0 150664.00 158487.00    573.90 o
   2   8   0  29033.10  31436.60    259.41 o
   4   8   0   8074.38   8047.44     91.66 o
   6   8   0   2423.67   2385.07     35.88 o
   8   8   0   3512.56   3534.58     56.98 o
  10   8   0    838.11    904.70     29.12 o
  12   8   0    325.15    325.74     16.46 o
   1   9   0  42998.20  41642.60    138.41 o
   3   9   0  29034.00  30482.90    163.09 o
   5   9   0    331.72    337.99     13.92 o
   7   9   0  81523.20  80992.00    235.32 o
   9   9   0     84.01     87.34      8.86 o
  11   9   0   6956.02   7027.44     78.52 o
   0  10   0  23004.70  23241.90    133.74 o
   2  10   0   2900.91   2868.13     38.41 o
   4  10   0   1942.75   1849.78     34.61 o
   6  10   0   4637.01   4592.50     52.35 o
   8  10   0     11.49     14.35      4.22 o
  10  10   0     28.68     33.76      7.17 o
   1  11   0   1288.07   1279.09     27.01 o
   3  11   0  31541.50  32452.20    149.90 o
   5  11   0   1855.85   1920.19     35.03 o
   7  11   0   2990.63   2991.11     44.74 o
   9  11   0    463.18    485.67     20.68 o
  11  11   0   7552.51   7641.73     85.28 o
   0  12   0   6296.37   6449.54     75.16 o
   2  12   0   2999.75   3037.24     43.05 o
   4  12   0  23764.40  23033.30    128.58 o
   6  12   0   2035.14   1933.26     32.50 o
   8  12   0    163.10    153.59     11.81 o
  10  12   0   4485.18   4672.42     65.00 o
   1  13   0    288.38    291.57     13.50 o
   3  13   0  31036.30  31654.20    170.13 o
   5  13   0     59.69     53.59      5.91 o
   7  13   0   7401.56   7228.85     66.28 o
   9  13   0     26.30     35.02      6.33 o
   0  14   0   1376.17   1434.77     35.87 o
   2  14   0   1308.63   1330.11     30.81 o
   4  14   0   8327.18   8291.21     89.52 o
   6  14   0    467.94    451.91     18.14 o
   8  14   0     14.25     18.99      5.49 o
   1  15   0   5157.24   5163.45     56.99 o
   3  15   0    246.21    251.06     14.35 o
   5  15   0    690.94    677.67     23.63 o
   7  15   0   5885.26   6101.36     72.18 o
   0  16   0  19382.40  19832.20    144.11 o
   2  16   0    159.08    155.70     11.39 o
   4  16   0   3253.29   3273.80     49.38 o
   6  16   0   1246.20   1263.40     34.60 o
   1  17   0   1292.46   1260.45     26.58 o
   3  17   0   1043.54   1072.23     28.27 o
   1   1   1    164.24    193.69     13.08 o
   3   1   1  26602.00  27532.00     69.33 o
   5   1   1  18015.00  17482.20     64.79 o
   7   1   1  22670.20  24451.10    102.87 o
   9   1   1   9661.24   9518.48     58.29 o
  11   1   1   3226.54   3182.38     32.92 o
  13   1   1    933.02    920.74     20.25 o
   0   2   1    580.97    584.96     27.43 o
   2   2   1 411214.00 397662.00    258.63 o
   4   2   1   5356.86   5488.57     32.95 o
   6   2   1  84602.70  83997.70    167.71 o
   8   2   1  30866.20  29562.70    102.08 o
  10   2   1   3500.46   3521.07     36.30 o
  12   2   1  23359.90  22760.20     92.59 o
   1   3   1  42564.80  41824.40     77.91 o
   3   3   1     98.33    105.07      4.22 o
   5   3   1  78052.90  76359.80    127.11 o
   7   3   1   3761.34   3819.70     37.99 o
   9   3   1  28853.90  28856.20    109.63 o
  11   3   1     38.67     41.77      4.64 o
  13   3   1   2941.64   2845.78     33.76 o
   0   4   1  28503.30  28605.80    146.36 o
   2   4   1   9285.30   9291.25     37.64 o
   4   4   1  13029.70  12919.10     60.92 o
   6   4   1   7721.81   7632.48     49.42 o
   8   4   1   1486.00   1537.40     24.90 o
  10   4   1   3801.24   3852.90     39.68 o
  12   4   1     72.76     90.30      6.33 o
   1   5   1    117.86    115.61      4.64 o
   3   5   1   8962.66   9047.87     39.73 o
   5   5   1   8916.29   8847.57     48.59 o
   7   5   1  11301.60  11509.40     68.45 o
   9   5   1   6919.96   6952.69     50.25 o
  11   5   1   2511.36   2450.74     32.07 o
  13   5   1   1148.91   1146.08     21.52 o
   0   6   1  21146.50  20737.30     95.78 o
   2   6   1 119484.00 119503.00    172.69 o
   4   6   1   2276.43   2253.99     25.33 o
   6   6   1  21958.20  21591.60     84.64 o
   8   6   1   6148.02   6259.50     48.98 o
  10   6   1    116.56    111.82      6.33 o
  12   6   1   9495.08   9632.52     65.03 o
   1   7   1  66326.70  64476.50    142.17 o
   3   7   1   7595.16   7249.74     47.31 o
   5   7   1  93471.10  94260.50    175.64 o
   7   7   1     47.31     51.90      4.64 o
   9   7   1  36199.70  36736.10    110.09 o
  11   7   1    751.94    741.39     16.46 o
   0   8   1   9821.82   9754.04     58.74 o
   2   8   1     27.45     29.11      3.38 o
   4   8   1   2579.32   2536.74     28.70 o
   6   8   1   2118.20   2087.43     24.90 o
   8   8   1     54.72     56.54      4.64 o
  10   8   1   2086.88   2110.50     27.85 o
  12   8   1    203.00    200.85      9.70 o
   1   9   1   9184.14   8994.31     44.78 o
   3   9   1   1171.00   1122.95     18.57 o
   5   9   1  14301.10  14299.90     64.24 o
   7   9   1     20.30     27.00      3.80 o
   9   9   1   8511.80   8739.08     62.92 o
  11   9   1    125.25    126.58      8.02 o
   0  10   1  16023.60  16057.50     78.64 o
   2  10   1  27265.70  26775.20     85.95 o
   4  10   1   5150.03   5203.90     41.80 o
   6  10   1   5300.34   5369.57     42.64 o
   8  10   1    494.16    486.52     14.77 o
  10  10   1     49.01     42.19      4.64 o
   1  11   1  22148.30  22501.70     74.45 o
   3  11   1   1281.82   1289.21     22.37 o
   5  11   1  37173.60  37413.20     96.57 o
   7  11   1     18.54     22.36      3.38 o
   9  11   1  15410.20  14818.90     78.58 o
   0  12   1     19.43     25.32      4.64 o
   2  12   1   5287.03   5373.00     41.37 o
   4  12   1    605.23    607.63     14.35 o
   6  12   1    497.57    478.08     11.81 o
   8  12   1   2504.34   2421.16     29.54 o
  10  12   1    142.99    151.48      8.44 o
   1  13   1   5899.13   5883.56     38.42 o
   3  13   1   3443.32   3465.67     36.30 o
   5  13   1   6326.27   6187.42     46.44 o
   7  13   1    463.21    451.49     12.24 o
   9  13   1   4844.44   4752.32     44.32 o
   0  14   1   1557.71   1577.01     27.43 o
   2  14   1  13333.40  13676.30     76.89 o
   4  14   1    192.30    187.34      8.02 o
   6  14   1   3734.97   3671.55     35.88 o
   8  14   1    654.24    645.17     15.61 o
   1  15   1   3187.57   3128.68     29.54 o
   3  15   1      2.68      5.49      2.95 <
   5  15   1   7888.95   8043.77     57.84 o
   7  15   1    363.69    350.64     10.97 o
   0  16   1    219.67    232.49     10.97 o
   2  16   1   4014.33   3934.14     39.25 o
   4  16   1    932.51    933.82     19.41 o
   1  17   1    650.35    642.64     14.35 o
   3  17   1    415.71    432.92     13.50 o
   0   0   2 252633.00 256169.00    363.13 o
   2   0   2   6578.60   6975.07     50.30 o
   4   0   2 336456.00 351479.00    536.76 o
   6   0   2   4306.99   3970.10     76.84 o
   8   0   2  15310.50  15261.90     96.80 o
  10   0   2  54048.20  54738.90    239.25 o
  12   0   2    210.05    200.85     13.08 o
   1   1   2  13557.50  13950.30     42.36 o
   3   1   2  96159.30  97487.40    140.16 o
   5   1   2  12659.60  12518.50     70.20 o
   7   1   2   6103.42   6104.14     46.87 o
   9   1   2   1699.03   1756.85     25.74 o
  11   1   2  11347.70  11452.20     67.16 o
  13   1   2    719.18    690.33     17.30 o
   0   2   2  57094.40  58758.60    117.46 o
   2   2   2   2111.88   2084.20     18.58 o
   4   2   2   2993.19   2799.49     29.13 o
   6   2   2  16165.00  15837.20     75.29 o
   8   2   2   6063.37   5968.41     46.45 o
  10   2   2   1353.49   1302.27     22.37 o
  12   2   2    842.30    844.78     18.57 o
   1   3   2     61.99     58.23      2.53 o
   3   3   2   7379.84   7172.87     41.84 o
   5   3   2  26245.80  26004.40    100.85 o
   7   3   2  31672.90  31489.60    102.10 o
   9   3   2  16436.10  16465.60     82.00 o
  11   3   2    467.92    505.08     15.19 o
  13   3   2     10.57     16.88      4.64 o
   0   4   2 419471.00 415068.00    373.46 o
   2   4   2   9165.22   9010.76     38.89 o
   4   4   2  52775.60  52095.80    145.61 o
   6   4   2  22564.70  22928.40     88.04 o
   8   4   2  16874.10  16715.40     78.21 o
  10   4   2   7469.32   7399.70     57.00 o
  12   4   2     20.29     21.52      4.22 o
   1   5   2  52833.70  52836.30     89.11 o
   3   5   2  29921.90  31116.10     92.04 o
   5   5   2     24.88     30.38      3.38 o
   7   5   2 105319.00 109837.00    206.81 o
   9   5   2    854.76    847.33     17.72 o
  11   5   2   7492.30   7370.48     62.06 o
  13   5   2   2613.87   2577.69     32.50 o
   0   6   2   5840.46   5677.22     40.13 o
   2   6   2  25821.30  25702.50     79.67 o
   4   6   2  24802.40  24469.70     87.24 o
   6   6   2    155.94    145.99      7.17 o
   8   6   2   2099.23   2061.20     24.06 o
  10   6   2   2233.78   2200.43     27.01 o
  12   6   2   1375.37   1387.06     24.05 o
   1   7   2   2802.08   2806.72     23.64 o
   3   7   2  34837.40  34390.70    103.48 o
   5   7   2   1259.56   1249.98     17.72 o
   7   7   2   1297.92   1323.39     22.37 o
   9   7   2    343.85    324.90      9.70 o
  11   7   2   7390.85   7448.71     52.35 o
   0   8   2  17400.30  17370.30     83.33 o
   2   8   2   9014.99   9006.24     50.27 o
   4   8   2  53274.00  53217.10    121.92 o
   6   8   2   4056.77   4008.54     36.30 o
   8   8   2    121.19    130.80      7.17 o
  10   8   2   9884.42  10080.90     59.54 o
  12   8   2    535.58    522.80     14.35 o
   1   9   2   5640.59   5595.66     35.89 o
   3   9   2  99681.50 101429.00    189.22 o
   5   9   2    699.67    690.77     14.77 o
   7   9   2  23721.70  24250.10     97.27 o
   9   9   2    898.63    871.79     17.72 o
  11   9   2  13641.70  13718.30     72.23 o
   0  10   2    843.32    811.47     21.52 o
   2  10   2     17.60     25.32      3.38 o
   4  10   2   5855.78   5924.86     43.49 o
   6  10   2    513.01    507.62     13.50 o
   8  10   2   1470.71   1489.21     25.32 o
  10  10   2   4085.76   4016.02     39.67 o
   1  11   2  13967.60  13399.90     61.70 o
   3  11   2   1647.52   1520.51     19.83 o
   5  11   2   1009.53   1033.43     18.15 o
   7  11   2  18208.30  18462.10     85.37 o
   9  11   2     96.98    114.35      7.17 o
   0  12   2  38344.90  38674.50    152.92 o
   2  12   2   6993.20   7016.28     46.45 o
   4  12   2   2857.02   2864.48     27.43 o
   6  12   2    509.90    516.90     13.50 o
   8  12   2   1578.45   1608.21     27.01 o
   1  13   2   6077.84   6090.81     43.91 o
   3  13   2   5206.18   5149.26     38.41 o
   5  13   2    185.51    190.72      7.17 o
   7  13   2  20599.90  21630.60     92.13 o
   0  14   2  15177.40  15245.70     95.49 o
   2  14   2     92.44     96.62      5.91 o
   4  14   2    393.78    383.98     10.55 o
   6  14   2   4508.45   4544.20     40.10 o
   1  15   2    475.54    483.56     13.08 o
   3  15   2   6231.93   6168.88     43.48 o
   5  15   2    876.87    915.25     17.30 o
   0  16   2   4370.15   4386.28     52.76 o
   2  16   2     25.36     33.76      4.22 o
   4  16   2   9846.78   9883.97     59.11 o
   1  17   2      4.42     13.92      3.38 o
   1   1   3     50.18     45.57      3.38 o
   3   1   3  14985.90  15056.80     83.76 o
   5   1   3  11168.90  11057.20     57.05 o
   7   1   3  15624.60  15435.70     72.29 o
   9   1   3   6850.85   6681.78     51.09 o
  11   1   3   2387.18   2328.73     32.07 o
  13   1   3    668.01    606.78     16.03 o
   0   2   3    391.90    427.46     15.61 o
   2   2   3 230999.00 244478.00    270.99 o
   4   2   3   3457.26   3363.41     35.88 o
   6   2   3  54968.00  56831.70    138.96 o
   8   2   3  21636.30  21611.40     94.74 o
  10   2   3   2669.89   2652.53     32.08 o
  12   2   3  16810.90  16893.10     85.34 o
   1   3   3  23043.40  23847.40     85.17 o
   3   3   3      9.50     16.03      2.95 o
   5   3   3  49464.40  49311.00    136.38 o
   7   3   3   2748.53   2754.03     31.23 o
   9   3   3  21139.70  21129.30    101.05 o
  11   3   3     35.34     42.19      5.06 o
   0   4   3  18156.00  17631.50    118.94 o
   2   4   3   5165.25   5396.14     43.07 o
   4   4   3   7933.06   7712.63     48.58 o
   6   4   3   6024.62   5987.96     46.03 o
   8   4   3    968.07    975.62     20.26 o
  10   4   3   2539.29   2526.72     35.45 o
  12   4   3     95.25    115.19      8.44 o
   1   5   3    134.80    140.51      7.17 o
   3   5   3   6767.71   6568.52     43.08 o
   5   5   3   6339.15   6382.78     46.03 o
   7   5   3   7371.91   7213.80     51.52 o
   9   5   3   4291.26   4176.34     42.63 o
  11   5   3   1785.08   1772.82     29.12 o
   0   6   3  11650.80  10254.90     81.15 o
   2   6   3  74102.00  73125.80    153.95 o
   4   6   3   1803.14   1796.61     24.06 o
   6   6   3  16626.10  16353.90     68.48 o
   8   6   3   3988.24   3924.30     38.41 o
  10   6   3     40.80     51.90      5.49 o
  12   6   3   7517.24   7465.29     60.37 o
   1   7   3  44909.90  45542.60    112.93 o
   3   7   3   4075.97   4081.44     33.35 o
   5   7   3  65837.70  67205.10    156.45 o
   7   7   3     93.43     93.67      5.49 o
   9   7   3  24440.80  24070.20     93.45 o
  11   7   3    598.46    602.98     16.46 o
   0   8   3   5332.26   5391.83     56.58 o
   2   8   3     85.84     89.87      5.06 o
   4   8   3   2129.14   2225.43     27.01 o
   6   8   3   1015.08    995.46     18.57 o
   8   8   3     11.22     15.61      3.80 o
  10   8   3   1806.66   1731.89     25.32 o
   1   9   3   5670.96   5569.09     41.80 o
   3   9   3   1341.14   1364.75     19.83 o
   5   9   3   9271.33   9080.33     55.75 o
   7   9   3     52.17     51.90      5.06 o
   9   9   3   7109.57   7046.68     54.46 o
  11   9   3    112.31    110.55      6.75 o
   0  10   3  12919.50  12894.60    108.17 o
   2  10   3  19852.30  19474.80     71.46 o
   4  10   3   3256.67   3259.70     33.34 o
   6  10   3   2929.53   3017.68     36.72 o
   8  10   3    441.93    450.65     13.08 o
  10  10   3      7.34     12.66      3.38 o
   1  11   3  14605.40  14647.90     80.71 o
   3  11   3   1425.44   1405.67     21.10 o
   5  11   3  25337.50  25864.40    100.23 o
   7  11   3     49.81     41.35      4.22 o
   9  11   3  12540.40  12473.00     77.29 o
   0  12   3     11.39     12.24      6.33 <
   2  12   3   4220.72   4095.27     37.15 o
   4  12   3    582.79    572.18     12.66 o
   6  12   3    158.21    160.76      8.02 o
   8  12   3   2042.02   2052.21     28.70 o
   1  13   3   4716.75   4810.01     49.39 o
   3  13   3   1899.45   1929.42     25.32 o
   5  13   3   5094.75   5067.48     44.32 o
   7  13   3    476.01    476.81     15.19 o
   0  14   3    760.44    756.16     28.27 o
   2  14   3   9054.29   9121.13     57.00 o
   4  14   3    219.36    215.19      8.02 o
   6  14   3   3381.24   3405.06     37.98 o
   1  15   3   2583.85   2546.07     30.81 o
   3  15   3     17.92     22.36      3.80 o
   5  15   3   6239.10   5856.24     45.17 o
   0  16   3    316.26    311.82     17.72 o
   2  16   3   2692.33   2675.20     33.34 o
   0   0   4 321521.00 314515.00    550.86 o
   2   0   4     27.24     28.69      4.22 o
   4   0   4  67819.10  67329.30    202.22 o
   6   0   4  26428.00  25747.90    131.62 o
   8   0   4  20052.10  19588.10    115.00 o
  10   0   4  11295.40  11262.30    103.47 o
  12   0   4    324.98    321.52     16.88 o
   1   1   4   2850.22   2853.53     28.28 o
   3   1   4    816.33    827.94     15.61 o
   5   1   4   8932.13   9082.08     56.18 o
   7   1   4  33773.10  33801.90    106.29 o
   9   1   4   5743.06   5676.80     45.17 o
  11   1   4   1556.02   1481.19     25.74 o
   0   2   4   3146.93   2992.95     43.90 o
   2   2   4   8478.00   8804.33     49.43 o
   4   2   4  13147.00  12996.70     64.67 o
   6   2   4    212.55    219.41      8.86 o
   8   2   4    238.03    233.34      9.70 o
  10   2   4   2053.14   2118.50     29.96 o
  12   2   4    301.88    286.50     11.81 o
   1   3   4  14807.50  15108.30     69.77 o
   3   3   4  13711.10  13016.60     60.45 o
   5   3   4  12059.40  12236.90     62.96 o
   7   3   4    230.56    219.41      9.28 o
   9   3   4   3458.50   3425.94     39.25 o
  11   3   4   3541.08   3558.35     43.47 o
   0   4   4  65738.00  67188.20    223.12 o
   2   4   4    192.10    194.10      7.60 o
   4   4   4  96251.70  98218.00    170.34 o
   6   4   4    146.59    147.26      7.60 o
   8   4   4   3469.18   3397.30     41.36 o
  10   4   4  18557.90  17737.20     89.59 o
   1   5   4   2932.70   2926.42     28.70 o
   3   5   4  82485.50  83739.70    144.92 o
   5   5   4     50.35     53.16      3.80 o
   7   5   4  19974.70  19944.60     85.82 o
   9   5   4    218.08    219.41     10.55 o
  11   5   4  11689.50  11948.10     73.90 o
   0   6   4  14610.60  15169.00     96.38 o
   2   6   4   5185.02   5168.63     38.00 o
   4   6   4     25.01     31.22      2.95 o
   6   6   4   6463.04   6434.98     45.18 o
   8   6   4   5355.40   5345.15     43.48 o
  10   6   4    551.95    560.36     16.03 o
   1   7   4   3074.69   3039.90     30.39 o
   3   7   4     25.05     24.47      3.38 o
   5   7   4   1293.81   1268.52     21.10 o
   7   7   4  14370.50  14391.50     68.87 o
   9   7   4   2189.00   2175.06     28.27 o
  11   7   4   1170.98   1145.24     23.63 o
   0   8   4  58672.80  60251.00    192.39 o
   2   8   4  12337.80  12481.20     56.62 o
   4   8   4   5324.29   5127.24     38.84 o
   6   8   4    577.57    576.82     13.50 o
   8   8   4   1605.84   1593.88     22.79 o
  10   8   4    695.27    662.06     16.03 o
   1   9   4  17930.30  17345.00     71.44 o
   3   9   4  17419.00  17405.80     68.90 o
   5   9   4    182.58    179.75      7.17 o
   7   9   4  38661.20  39170.70    119.38 o
   9   9   4      8.04      9.70      2.95 o
   0  10   4   8307.03   8360.82     71.37 o
   2  10   4   1141.19   1171.43     18.99 o
   4  10   4    505.42    493.69     12.66 o
   6  10   4   1700.60   1691.80     25.32 o
   8  10   4     20.16     18.99      3.80 o
   1  11   4   1076.80   1046.93     18.57 o
   3  11   4  13661.40  13764.10     63.79 o
   5  11   4    991.06   1012.74     18.57 o
   7  11   4   2172.35   2117.65     29.54 o
   0  12   4   4298.82   4244.19     56.14 o
   2  12   4   1809.88   1838.67     25.32 o
   4  12   4  10834.10  10698.60     59.55 o
   6  12   4    796.55    826.63     17.72 o
   1  13   4    280.92    268.78     10.55 o
   3  13   4  14504.80  14360.60     66.74 o
   5  13   4     34.58     38.40      4.22 o
   0  14   4   1127.68   1127.94     29.54 o
   2  14   4    610.45    629.14     14.77 o
   4  14   4   3893.25   3876.64     35.03 o
   1  15   4   2502.00   2477.24     29.12 o
   1   1   5     18.29     26.16      2.95 o
   3   1   5   7161.99   6990.08     48.56 o
   5   1   5   5149.30   5239.08     49.39 o
   7   1   5   7746.33   7563.25     54.89 o
   9   1   5   3342.65   3296.25     35.87 o
  11   1   5   1318.67   1300.12     23.63 o
   0   2   5     71.10     60.76      5.49 o
   2   2   5 100944.00 104160.00    173.76 o
   4   2   5   1529.86   1528.52     24.05 o
   6   2   5  28019.30  28036.80    110.01 o
   8   2   5  10802.60  10698.20     67.15 o
  10   2   5   1364.73   1366.38     24.48 o
   1   3   5  10633.20  10637.20     52.39 o
   3   3   5     48.08     50.21      3.80 o
   5   3   5  24192.30  23636.20     99.40 o
   7   3   5   1198.41   1227.13     22.79 o
   9   3   5  10337.90  10503.70     70.10 o
   0   4   5   7177.72   6988.80     61.65 o
   2   4   5   2847.98   2865.45     28.70 o
   4   4   5   4279.27   4171.88     38.84 o
   6   4   5   2479.17   2441.49     29.96 o
   8   4   5    631.70    640.11     16.03 o
  10   4   5   1604.95   1599.34     29.12 o
   1   5   5      9.28     12.24      2.11 o
   3   5   5   2464.43   2404.41     27.86 o
   5   5   5   2592.15   2546.62     31.23 o
   7   5   5   4249.73   4198.59     40.52 o
   9   5   5   2760.37   2640.22     33.34 o
   0   6   5   6848.62   7264.73     65.87 o
   2   6   5  36450.90  37370.40    108.85 o
   4   6   5    683.17    684.85     15.19 o
   6   6   5   7013.17   7190.15     51.51 o
   8   6   5   2280.28   2286.49     29.12 o
  10   6   5     72.50     71.73      6.33 o
   1   7   5  20397.90  20819.60     80.76 o
   3   7   5   2990.36   3006.77     30.81 o
   5   7   5  31538.50  31325.40    104.94 o
   7   7   5     11.13     12.66      3.38 o
   9   7   5  14736.70  14591.20     75.19 o
   0   8   5   3763.88   3709.35     46.85 o
   2   8   5      6.60     16.03      3.38 o
   4   8   5    840.78    830.44     16.03 o
   6   8   5   1022.30    975.18     19.83 o
   8   8   5     24.46     26.58      4.22 o
   1   9   5   3394.80   3349.98     34.19 o
   3   9   5    284.32    284.82      9.70 o
   5   9   5   5485.29   5543.46     41.37 o
   7   9   5      0.26      3.38      2.95 <
   0  10   5   5194.81   5124.26     50.66 o
   2  10   5   8982.37   8897.19     53.63 o
   4  10   5   2141.63   2202.49     26.59 o
   6  10   5   2283.26   2219.79     29.12 o
   1  11   5   8375.15   8482.70     49.82 o
   3  11   5    336.77    321.53     10.13 o
   5  11   5  14527.30  14329.60     71.39 o
   0  12   5     43.99     48.52      5.06 o
   2  12   5   1806.90   1777.46     24.05 o
   4  12   5    182.96    187.76      8.02 o
   1  13   5   2186.56   2185.58     27.43 o
   3  13   5   1662.46   1620.87     25.74 o
   0  14   5    800.14    818.61     24.47 o
   0   0   6  58819.20  61187.40    297.11 o
   2   0   6    784.94    786.55     21.52 o
   4   0   6  61742.20  64305.40    222.80 o
   6   0   6   2468.14   2372.22     51.07 o
   8   0   6   4749.51   4778.14     76.82 o
   1   1   6   1168.46   1158.36     18.99 o
   3   1   6  12444.80  12806.00     66.32 o
   5   1   6   2855.33   2806.61     33.34 o
   7   1   6   2919.18   2915.46     40.94 o
   9   1   6    897.89    902.16     22.36 o
   0   2   6   5737.25   5899.12     57.84 o
   2   2   6    913.93    923.28     16.46 o
   4   2   6     24.40     22.78      3.38 o
   6   2   6   2215.59   2259.07     32.50 o
   8   2   6   1367.31   1357.94     26.16 o
   1   3   6    229.43    234.60      8.02 o
   3   3   6    297.18    283.13      9.28 o
   5   3   6   6420.39   6452.15     53.19 o
   7   3   6   5289.47   5430.15     48.97 o
   9   3   6   3766.48   3790.48     42.63 o
   0   4   6  69779.30  72167.70    211.11 o
   2   4   6   1226.69   1227.56     18.99 o
   4   4   6  16300.40  16749.80     80.29 o
   6   4   6   3556.96   3563.07     40.10 o
   8   4   6   4192.38   4116.91     40.94 o
   1   5   6   8573.36   8552.80     54.05 o
   3   5   6  10862.00  10977.80     57.02 o
   5   5   6      2.79      4.22      3.38 <
   7   5   6  23384.80  23722.80     99.34 o
   0   6   6    107.91    107.17      9.28 o
   2   6   6   5091.31   5214.17     42.21 o
   4   6   6   4035.76   4029.64     36.30 o
   6   6   6     70.25     70.46      5.91 o
   8   6   6    799.89    778.10     18.14 o
   1   7   6    183.01    192.41      8.44 o
   3   7   6   5323.58   5366.97     42.64 o
   5   7   6    319.34    330.39     11.39 o
   7   7   6    911.72    862.50     19.83 o
   0   8   6   6781.84   6731.70     66.70 o
   2   8   6   2919.46   3001.98     33.76 o
   4   8   6  10603.90  10687.60     59.97 o
   6   8   6    578.07    611.42     16.03 o
   1   9   6   2357.08   2385.68     28.70 o
   3   9   6  21546.20  22198.30     88.34 o
   5   9   6    217.45    210.13      8.44 o
   0  10   6      3.00      4.64      3.38 <
   2  10   6     44.56     45.99      4.64 o
   4  10   6    873.20    891.19     17.72 o
   1  11   6   3057.96   3015.87     32.50 o
   3  11   6   1101.56   1074.34     18.99 o
   0  12   6   8560.29   8623.89     71.35 o
   1   1   7      0.28     -1.69      2.11 <
   3   1   7   2596.69   2632.20     31.65 o
   5   1   7   1787.19   1788.43     26.16 o
   7   1   7   3178.87   3179.63     37.98 o
   0   2   7     39.47     30.38      4.22 o
   2   2   7  37304.10  37390.40    110.89 o
   4   2   7    657.79    651.09     15.61 o
   6   2   7  10543.50  10642.60     65.03 o
   1   3   7   3620.50   3619.64     33.77 o
   3   3   7      0.30      7.17      2.95 o
   5   3   7   8842.62   8995.15     62.49 o
   0   4   7   3237.60   3237.98     42.63 o
   2   4   7    986.73   1011.05     17.72 o
   4   4   7   1525.97   1586.26     24.48 o
   6   4   7   1289.88   1254.54     23.63 o
   1   5   7     12.89     15.19      2.95 o
   3   5   7   1321.74   1343.59     20.68 o
   5   5   7   1121.30   1130.89     22.79 o
   0   6   7   2018.00   2058.55     39.67 o
   2   6   7  12954.90  12938.40     65.89 o
   4   6   7    381.76    367.94     10.97 o
   1   7   7   8458.97   8736.46     58.27 o
   3   7   7    804.09    794.56     16.88 o
   0   8   7   1014.52   1027.50     28.27 o
   2   8   7     34.43     39.66      4.22 o
   1   9   7   1124.67   1151.99     21.10 o
   0   0   8  34596.00  32331.60    328.69 o
   2   0   8     31.05     30.80      4.64 o
   1   1   8     56.96     51.48      4.64 o
   3   1   8    618.30    659.94     16.88 o
   0   2   8      2.43     -1.27      3.38 <
   2   2   8    857.37    840.55     18.14 o
   1   3   8   1303.30   1201.80     20.68 o


# For import please use the tool of Jana2020 program:
# "Structure->New->from Jana2020 embedded in CIF"


_Jana_m40_file
;
    4    0    0    1    0
 0.486828 0.000000 0.000000 0.000000 0.000000 0.000000      100000
 0.000000 0.000000 0.000000                                 000
 0.000000 0.000000 0.000000 0.000000 0.000000 0.000000      000000
 0.091437 0.000000 0.000000 0.000000 0.000000 0.000000      100000
i01       3  3     0.250000 0.500000 0.620944 1.250000
 0.024444 0.020242 0.024016 0.000000 0.000000 0.000000      0010111000
 0.000000-0.000017 0.000000 0.000000 0.000000 0.000000      010000
-0.000009 0.000000-0.000181 0.000000                        1010
i002      3  3     0.500000 0.217133 0.620310 0.750000
 0.031100 0.039157 0.023868 0.012752 0.000000 0.000000      0110111100
-0.000086-0.000113 0.000000-0.000042 0.000000-0.000256      110101
-0.000120 0.000000-0.000082 0.000000                        1010
cs00      1  3     0.250000 0.500000 0.828663 1.750000
 0.039872 0.051577 0.022451 0.000000 0.000000 0.000000      0010111000
 0.000000-0.000304 0.000000 0.000000 0.000000 0.000000      010000
 0.000153 0.000000 0.000102 0.000000                        1010
cu04      2  3     0.500000 0.351585 0.500000 1.000000
 0.035493 0.032617 0.043949 0.000000 0.000000 0.005843      0100111001
-0.000487 0.000000 0.000000-0.000242-0.001633-0.002760      100111
 0.000000 0.000000 0.000000 0.000000                        0000
--------------------------   s.u. block   --------------------------------------
 0.000831 0.000000 0.000000 0.000000 0.000000 0.000000
 0.000000 0.000000 0.000000
 0.000000 0.000000 0.000000 0.000000 0.000000 0.000000
 0.011577 0.000000 0.000000 0.000000 0.000000 0.000000
i01                0.000000 0.000000 0.000031 0.000000
 0.000124 0.000110 0.000121 0.000000 0.000000 0.000000
 0.000000 0.000023 0.000000 0.000000 0.000000 0.000000
 0.000027 0.000000 0.000064 0.000000
i002               0.000000 0.000041 0.000027 0.000000
 0.000116 0.000114 0.000106 0.000051 0.000000 0.000000
 0.000055 0.000022 0.000000 0.000019 0.000000 0.000082
 0.000028 0.000000 0.000055 0.000000
cs00               0.000000 0.000000 0.000043 0.000000
 0.000145 0.000154 0.000110 0.000000 0.000000 0.000000
 0.000000 0.000036 0.000000 0.000000 0.000000 0.000000
 0.000047 0.000000 0.000087 0.000000
cu04               0.000000 0.000067 0.000000 0.000000
 0.000186 0.000179 0.000199 0.000000 0.000000 0.000112
 0.000101 0.000000 0.000000 0.000033 0.000067 0.000184
 0.000000 0.000000 0.000000 0.000000
--------------------------   Saved points   ------------------------------------
    0
--------------------------   Critical points   ---------------------------------
    0
--------------------------   Fourier maxima   ----------------------------------
    1    1    1
Max1      1  1     1.000000 0.500000 0.376845 0.130638      000  0  0  0
     0.30     0.21
Max2      1  1     1.000000 0.213153 0.137115 0.125214      000  0  0  0
     0.22     0.18
Max3      1  1     1.000000 0.390928 0.372676 0.067159      000  0  0  0
     0.19     0.16
Max4      1  1     1.000000 0.066087 0.175851 0.249950      000  0  0  0
     0.28     0.15
Max5      1  1     1.000000-0.000000 0.470279 0.139217      000  0  0  0
     0.19     0.14
Max6      1  1     1.000000 0.114451 0.376467 0.066925      000  0  0  0
     0.20     0.13
Max7      1  1     1.000000 0.245599 0.273476 0.249971      000  0  0  0
     0.21     0.13
Max8      1  1     1.000000 0.296816 0.116952 0.149208      000  0  0  0
     0.17     0.13
Max9      1  1     1.000000 0.500000 0.160780 0.249959      000  0  0  0
     0.26     0.12
Max10     1  1     1.000000 0.239553 0.235619 0.135420      000  0  0  0
     0.17     0.11
--------------------------   Fourier minima   ----------------------------------
    1    1    1
Min1      1  1     1.000000-0.000000 0.112945 0.099707      000  0  0  0
     0.34     0.30
Min2      1  1     1.000000 0.500000 0.136456 0.098482      000  0  0  0
     0.25     0.23
Min3      1  1     1.000000 0.276790 0.304960 0.066228      000  0  0  0
     0.30     0.22
Min4      1  1     1.000000 0.217631 0.429481 0.072304      000  0  0  0
     0.23     0.18
Min5      1  1     1.000000-0.000000 0.403230 0.249969      000  0  0  0
     0.27     0.15
--------------------------------------------------------------------------------
;


_Jana_m50_file
;
Version Jana2020
title 240202_cscu2i3_50kev_100k-400k__a.res in cmcm
cell 10.5032 13.0893 6.0697 90 90 90
esdcell 0.0001 0.0002 0.0001 0 0 0
spgroup Cmcm 63 3
lattice C
symmetry x y z
symmetry -x -y z+1/2
symmetry -x y -z+1/2
symmetry x -y -z
symmetry -x -y -z
symmetry x y -z+1/2
symmetry x -y z+1/2
symmetry -x y z
unitsnumb 16
atlist Cs0.25 Cu0.5 I0.75
formtab -62
atom Cs atradius 2.72 color 14254185
atom Cu atradius 1.28 color 34071220
atom I atradius 1.33 color 142031138
roundmethod 1
end
*******************************************************************************
refine
  cycles 100 siglevel 2
  iext 1 itypex 1 idistr 1 radius 0.01
  !fixed all *
end refine
fourier
end fourier
dist
end dist
contour
end contour
;
