
#=======================================================================
data_global
#=======================================================================

_audit_creation_method                   'Jana2020 1.3.53'


# 1. PROCESSING SUMMARY (IUCr Office Use Only)

_journal_date_recd_electronic            ?
_journal_date_to_coeditor                ?
_journal_date_from_coeditor              ?
_journal_date_accepted                   ?
_journal_date_printers_first             ?
_journal_date_printers_final             ?
_journal_date_proofs_out                 ?
_journal_date_proofs_in                  ?
_journal_coeditor_name                   ?
_journal_coeditor_code                   ?
_journal_coeditor_notes
; ?
;
_journal_techeditor_code                 ?
_journal_paper_category                  ?
_journal_techeditor_notes
; ?
;
_journal_coden_ASTM                      ?
_journal_name_full                       'Acta Crystallographica Section C'
_journal_year                            ?
_journal_volume                          ?
_journal_issue                           ?
_journal_page_first                      ?
_journal_page_last                       ?
_journal_suppl_publ_number               ?
_journal_suppl_publ_pages                ?

#=======================================================================

# 2. SUBMISSION DETAILS

_publ_contact_author_name                ?
_publ_contact_author_address
; ?
;
_publ_contact_author_email               ?
_publ_contact_author_fax                 ?
_publ_contact_author_phone               ?

_publ_requested_journal                  'Acta Crystallographica Section C'
_publ_requested_category                 ?

_publ_contact_letter
; ?
;

#=======================================================================

# 3. TITLE AND AUTHOR LIST

_publ_section_title
; ?
;
_publ_section_title_footnote
; ?
;
loop_
 _publ_author_name
 _publ_author_footnote
 _publ_author_address
; ?      # name
;
; ?      # footnote
;
; ?      # address
;

#=======================================================================

# 4. TEXT

_publ_section_synopsis
; ?
;
_publ_section_abstract
; ?
;
_publ_section_comment
; ?
;
_publ_section_introduction
; ?
;
_publ_section_experimental
; ?
;
_publ_section_exptl_prep
; ?
;
_publ_section_exptl_refinement
; ?
;
_publ_section_exptl_solution
; ?
;
_publ_section_discussion
; ?
;
_publ_section_acknowledgements
; ?
;
_publ_section_references
;
;
_publ_section_figure_captions
; ?
;
_publ_section_table_legends
; ?
;

#=======================================================================
data_I
#=======================================================================

# 5. CHEMICAL DATA

_chemical_name_systematic
; ?
;
_chemical_name_common                    ?
_chemical_formula_moiety                 ?
_chemical_formula_structural             ?
_chemical_formula_analytical             ?
_chemical_formula_iupac                  ?
_chemical_formula_sum                    'Cs0.25 Cu0.5 I0.75'
_chemical_formula_weight                 160.2
_chemical_melting_point                  ?
_chemical_compound_source                ?
_chemical_absolute_configuration         .

#=======================================================================

# 6. CRYSTAL DATA

_symmetry_cell_setting                   orthorhombic
_symmetry_space_group_name_H-M           'C m c m'
_symmetry_space_group_name_Hall          '-C -2x;-2yc;-2zc'
_symmetry_Int_Tables_number              63

loop_
 _space_group_symop_id
 _space_group_symop_operation_xyz
 1   x,y,z
 2   -x,-y,z+1/2
 3   -x,y,-z+1/2
 4   x,-y,-z
 5   -x,-y,-z
 6   x,y,-z+1/2
 7   x,-y,z+1/2
 8   -x,y,z
 9   x+1/2,y+1/2,z
 10  -x+1/2,-y+1/2,z+1/2
 11  -x+1/2,y+1/2,-z+1/2
 12  x+1/2,-y+1/2,-z
 13  -x+1/2,-y+1/2,-z
 14  x+1/2,y+1/2,-z+1/2
 15  x+1/2,-y+1/2,z+1/2
 16  -x+1/2,y+1/2,z

_cell_length_a                           10.5567(2)
_cell_length_b                           13.1844(3)
_cell_length_c                           6.10210(10)
_cell_angle_alpha                        90
_cell_angle_beta                         90
_cell_angle_gamma                        90
_cell_volume                             849.31(3)

loop_
 _twin_individual_id
 _twin_individual_mass_fraction_refined
 _twin_individual_twin_matrix_11
 _twin_individual_twin_matrix_12
 _twin_individual_twin_matrix_13
 _twin_individual_twin_matrix_21
 _twin_individual_twin_matrix_22
 _twin_individual_twin_matrix_23
 _twin_individual_twin_matrix_31
 _twin_individual_twin_matrix_32
 _twin_individual_twin_matrix_33
 ? ? ? ? ? ? ? ? ? ? ?

_cell_formula_units_Z                    16

_cell_measurement_reflns_used            ?
_cell_measurement_theta_min              ?
_cell_measurement_theta_max              ?
_cell_measurement_temperature            293
_cell_special_details
; ?
;

_exptl_crystal_density_diffrn            5.0108
_exptl_crystal_density_meas              ?
_exptl_crystal_density_method            ?
_exptl_crystal_F_000                     1088

_exptl_absorpt_coefficient_mu            5.361
_exptl_crystal_description               ?
_exptl_crystal_size_max                  ?
_exptl_crystal_size_mid                  ?
_exptl_crystal_size_min                  ?
_exptl_crystal_size_rad                  ?
_exptl_crystal_colour                    ?
_exptl_absorpt_correction_type           ?
_exptl_absorpt_process_details           ?
_exptl_absorpt_correction_T_min          ?
_exptl_absorpt_correction_T_max          ?
loop_
 _exptl_crystal_face_index_h
 _exptl_crystal_face_index_k
 _exptl_crystal_face_index_l
 _exptl_crystal_face_perp_dist
 ? ? ? ?

#=======================================================================

# 7. EXPERIMENTAL DATA

_exptl_special_details                   ?

_diffrn_ambient_temperature              293
_diffrn_source                           ?
_diffrn_source_power                     ?
_diffrn_source_voltage                   ?
_diffrn_source_current                   ?
_diffrn_radiation_type                   'X-ray'
_diffrn_radiation_source                 ?
_diffrn_radiation_wavelength             0.2481
_diffrn_radiation_monochromator          ?
_diffrn_measurement_device               ?
_diffrn_measurement_device_type          ?
_diffrn_detector                         ?
_diffrn_detector_area_resol_mean         ?
_diffrn_measurement_method               ?
_diffrn_measurement_specimen_support     ?

_diffrn_reflns_number                    14300
_diffrn_reflns_theta_min                 1.45
_diffrn_reflns_theta_max                 9.65
_diffrn_reflns_theta_full                9.65
_diffrn_measured_fraction_theta_max      1
_diffrn_measured_fraction_theta_full     1
_diffrn_reflns_av_R_equivalents          0.0517
_diffrn_reflns_av_unetI/netI             0.0046
_diffrn_reflns_limit_h_min               -14
_diffrn_reflns_limit_h_max               14
_diffrn_reflns_limit_k_min               -17
_diffrn_reflns_limit_k_max               17
_diffrn_reflns_limit_l_min               -8
_diffrn_reflns_limit_l_max               8
_diffrn_reflns_reduction_process         ?

_diffrn_standards_number                 ?
_diffrn_standards_interval_count         ?
_diffrn_standards_interval_time          ?
_diffrn_standards_decay_%                ?
loop_
_diffrn_standard_refln_index_h
_diffrn_standard_refln_index_k
_diffrn_standard_refln_index_l
  ? ? ?

_diffrn_radiation_probe                  X-ray

#=======================================================================

# 8. REFINEMENT DATA

_refine_special_details
; ?
;

_reflns_number_total                     630
_reflns_number_gt                        594
_reflns_threshold_expression             'I>2\s(I)'

_refine_ls_structure_factor_coef         Fsqd
_refine_ls_R_factor_gt                   0.0097
_refine_ls_wR_factor_gt                  0.0293
_refine_ls_R_factor_all                  0.0103
_refine_ls_wR_factor_ref                 0.0294
_refine_ls_goodness_of_fit_ref           1.1859
_refine_ls_goodness_of_fit_gt            1.2193
_refine_ls_restrained_S_gt               ?
_refine_ls_restrained_S_all              ?
_refine_ls_number_reflns                 630
_refine_ls_number_parameters             37
_refine_ls_number_restraints             0
_refine_ls_number_constraints            0
_refine_ls_weighting_scheme              sigma
_refine_ls_weighting_details             'calc w=1/[\s^2^(Fo^2^)+(0.02P)^2^+0.0000P] where P=(Fo^2^+2Fc^2^)/3'
_refine_ls_hydrogen_treatment            ?
_refine_ls_shift/su_max                  0.0201
_refine_ls_shift/su_mean                 0.0050
_refine_diff_density_max                 0.22
_refine_diff_density_min                 -0.21
_refine_ls_extinction_method
 'B-C type 1 Gaussian isotropic (Becker & Coppens, 1974)'
_refine_ls_extinction_coef               1090(130)
_refine_ls_extinction_expression         ?
_refine_ls_abs_structure_details         ?
_refine_ls_abs_structure_Flack           ?
_refine_ls_abs_structure_Rogers          ?

loop_
 _atom_type_symbol
 _atom_type_scat_dispersion_real
 _atom_type_scat_dispersion_imag
 _atom_type_scat_source
 Cs  -0.2815  2.0398
 'International Tables Vol C tables 4.2.6.8 and 6.1.1.1'
 Cu   0.0994  0.1762
 'International Tables Vol C tables 4.2.6.8 and 6.1.1.1'
 I   -0.1121  1.7896
 'International Tables Vol C tables 4.2.6.8 and 6.1.1.1'

_computing_data_collection               ?
_computing_cell_refinement               ?
_computing_data_reduction                ?
_computing_structure_solution            ?
_computing_structure_refinement          ?
_computing_molecular_graphics            ?
_computing_publication_material          ?

loop_
 _restr_distance_atom_site_label_1
 _restr_distance_site_symmetry_1
 _restr_distance_atom_site_label_2
 _restr_distance_site_symmetry_2
 _restr_distance_target
 _restr_distance_target_weight_param
 ? ? ? ? ? ?

loop_
 _restr_angle_atom_site_label_1
 _restr_angle_site_symmetry_1
 _restr_angle_atom_site_label_2
 _restr_angle_site_symmetry_2
 _restr_angle_atom_site_label_3
 _restr_angle_site_symmetry_3
 _restr_angle_target
 _restr_angle_target_weight_param
 ? ? ? ? ? ? ? ?

loop_
 _restr_torsion_atom_site_label_1
 _restr_torsion_site_symmetry_1
 _restr_torsion_atom_site_label_2
 _restr_torsion_site_symmetry_2
 _restr_torsion_atom_site_label_3
 _restr_torsion_site_symmetry_3
 _restr_torsion_atom_site_label_4
 _restr_torsion_site_symmetry_4
 _restr_torsion_angle_target
 _restr_torsion_weight_param
 ? ? ? ? ? ? ? ? ? ?

loop_
 _restr_equal_distance_atom_site_label_1
 _restr_equal_distance_site_symmetry_1
 _restr_equal_distance_atom_site_label_2
 _restr_equal_distance_site_symmetry_2
 _restr_equal_distance_class_class_id
 _restr_equal_distance_class_target_weight_param
 ? ? ? ? ? ?

loop_
 _restr_equal_angle_atom_site_label_1
 _restr_equal_angle_site_symmetry_1
 _restr_equal_angle_atom_site_label_2
 _restr_equal_angle_site_symmetry_2
 _restr_equal_angle_atom_site_label_3
 _restr_equal_angle_site_symmetry_3
 _restr_equal_angle_class_class_id
 _restr_equal_angle_class_target_weight_param
 ? ? ? ? ? ? ? ?

loop_
 _restr_equal_torsion_atom_site_label_1
 _restr_equal_torsion_site_symmetry_1
 _restr_equal_torsion_atom_site_label_2
 _restr_equal_torsion_site_symmetry_2
 _restr_equal_torsion_atom_site_label_3
 _restr_equal_torsion_site_symmetry_3
 _restr_equal_torsion_atom_site_label_4
 _restr_equal_torsion_site_symmetry_4
 _restr_equal_torsion_class_class_id
 _restr_equal_torsion_class_target_weight_param
 ? ? ? ? ? ? ? ? ? ?


#=======================================================================

# 9. ATOMIC COORDINATES AND DISPLACEMENT PARAMETERS

loop_
 _atom_site_label
 _atom_site_type_symbol
 _atom_site_fract_x
 _atom_site_fract_y
 _atom_site_fract_z
 _atom_site_adp_type
 _atom_site_U_iso_or_equiv
 _atom_site_site_symmetry_multiplicity
 _atom_site_occupancy
 _atom_site_calc_flag
 _atom_site_refinement_flags
 _atom_site_disorder_assembly
 _atom_site_disorder_group
  i01 I 0.5 0.62010(3) 1.25 Uani 0.03315(7) 4 1 d . . .
  i002 I 0.21695(4) 0.61944(3) 0.75 Uani 0.04613(7) 8 1 d . . .
  cs00 Cs 0.5 0.82761(5) 1.75 Uani 0.05603(9) 4 1 d . . .
  cu04 Cu 0.35018(8) 0.5 1 Uani 0.05567(12) 8 1 d . . .

loop_
 _atom_site_aniso_label
 _atom_site_aniso_type_symbol
 _atom_site_aniso_U_11
 _atom_site_aniso_U_22
 _atom_site_aniso_U_33
 _atom_site_aniso_U_12
 _atom_site_aniso_U_13
 _atom_site_aniso_U_23
 i01 I 0.03488(12) 0.02968(10) 0.03489(12) 0 0 0
 i002 I 0.04545(12) 0.05739(12) 0.03556(11) 0.01919(6) 0 0
 cs00 Cs 0.05882(16) 0.07482(18) 0.03447(12) 0 0 0
 cu04 Cu 0.0538(2) 0.05045(19) 0.0627(2) 0 0 0.00923(14)

loop_
 _jana_atom_site_ADP_C_label
 _jana_atom_site_ADP_C_type_symbol
 _jana_atom_site_ADP_C_111
 _jana_atom_site_ADP_C_112
 _jana_atom_site_ADP_C_113
 _jana_atom_site_ADP_C_122
 _jana_atom_site_ADP_C_123
 _jana_atom_site_ADP_C_133
 _jana_atom_site_ADP_C_222
 _jana_atom_site_ADP_C_223
 _jana_atom_site_ADP_C_233
 _jana_atom_site_ADP_C_333
 i01 I 0 -0.00005(2) 0 0 0 0 -0.00009(3) 0 -0.00026(7) 0
 i002 I -0.00014(6) -0.00023(3) 0 -0.00019(2) 0 -0.00050(9) -0.00034(3)
 0 -0.00026(6) 0
 cs00 Cs 0 -0.00072(5) 0 0 0 0 0.00044(6) 0 0.00027(11) 0
 cu04 Cu -0.00120(14) 0 0 -0.00064(4) -0.00346(8) -0.0055(2) 0 0 0
 0

loop_
 _jana_atom_site_ADP_D_label
 _jana_atom_site_ADP_D_type_symbol
 _jana_atom_site_ADP_D_1111
 _jana_atom_site_ADP_D_1112
 _jana_atom_site_ADP_D_1113
 _jana_atom_site_ADP_D_1122
 _jana_atom_site_ADP_D_1123
 _jana_atom_site_ADP_D_1133
 _jana_atom_site_ADP_D_1222
 _jana_atom_site_ADP_D_1223
 _jana_atom_site_ADP_D_1233
 _jana_atom_site_ADP_D_1333
 _jana_atom_site_ADP_D_2222
 _jana_atom_site_ADP_D_2223
 _jana_atom_site_ADP_D_2233
 _jana_atom_site_ADP_D_2333
 _jana_atom_site_ADP_D_3333
 ? ? ? ? ? ? ? ? ? ? ? ? ? ? ? ? ?

loop_
 _jana_atom_site_ADP_E_label
 _jana_atom_site_ADP_E_type_symbol
 _jana_atom_site_ADP_E_11111
 _jana_atom_site_ADP_E_11112
 _jana_atom_site_ADP_E_11113
 _jana_atom_site_ADP_E_11122
 _jana_atom_site_ADP_E_11123
 _jana_atom_site_ADP_E_11133
 _jana_atom_site_ADP_E_11222
 _jana_atom_site_ADP_E_11223
 _jana_atom_site_ADP_E_11233
 _jana_atom_site_ADP_E_11333
 _jana_atom_site_ADP_E_12222
 _jana_atom_site_ADP_E_12223
 _jana_atom_site_ADP_E_12233
 _jana_atom_site_ADP_E_12333
 _jana_atom_site_ADP_E_13333
 _jana_atom_site_ADP_E_22222
 _jana_atom_site_ADP_E_22223
 _jana_atom_site_ADP_E_22233
 _jana_atom_site_ADP_E_22333
 _jana_atom_site_ADP_E_23333
 _jana_atom_site_ADP_E_33333
 ? ? ? ? ? ? ? ? ? ? ? ? ? ? ? ? ? ? ? ? ? ? ?

loop_
 _jana_atom_site_ADP_F_label
 _jana_atom_site_ADP_F_type_symbol
 _jana_atom_site_ADP_F_111111
 _jana_atom_site_ADP_F_111112
 _jana_atom_site_ADP_F_111113
 _jana_atom_site_ADP_F_111122
 _jana_atom_site_ADP_F_111123
 _jana_atom_site_ADP_F_111133
 _jana_atom_site_ADP_F_111222
 _jana_atom_site_ADP_F_111223
 _jana_atom_site_ADP_F_111233
 _jana_atom_site_ADP_F_111333
 _jana_atom_site_ADP_F_112222
 _jana_atom_site_ADP_F_112223
 _jana_atom_site_ADP_F_112233
 _jana_atom_site_ADP_F_112333
 _jana_atom_site_ADP_F_113333
 _jana_atom_site_ADP_F_122222
 _jana_atom_site_ADP_F_122223
 _jana_atom_site_ADP_F_122233
 _jana_atom_site_ADP_F_122333
 _jana_atom_site_ADP_F_123333
 _jana_atom_site_ADP_F_133333
 _jana_atom_site_ADP_F_222222
 _jana_atom_site_ADP_F_222223
 _jana_atom_site_ADP_F_222233
 _jana_atom_site_ADP_F_222333
 _jana_atom_site_ADP_F_223333
 _jana_atom_site_ADP_F_233333
 _jana_atom_site_ADP_F_333333
 ? ? ? ? ? ? ? ? ? ? ? ? ? ? ? ? ? ? ? ? ? ? ? ? ? ? ? ? ? ?


#=======================================================================

# 10. MOLECULAR GEOMETRY


loop_
 _geom_bond_atom_site_label_1
 _geom_bond_atom_site_label_2
 _geom_bond_site_symmetry_1
 _geom_bond_site_symmetry_2
 _geom_bond_distance
 _geom_bond_publ_flag
 ? ? ? ? ? ?

loop_
 _geom_angle_atom_site_label_1
 _geom_angle_atom_site_label_2
 _geom_angle_atom_site_label_3
 _geom_angle_site_symmetry_1
 _geom_angle_site_symmetry_2
 _geom_angle_site_symmetry_3
 _geom_angle
 _geom_angle_publ_flag
 ? ? ? ? ? ? ? ?

loop_
 _geom_torsion_atom_site_label_1
 _geom_torsion_atom_site_label_2
 _geom_torsion_atom_site_label_3
 _geom_torsion_atom_site_label_4
 _geom_torsion_site_symmetry_1
 _geom_torsion_site_symmetry_2
 _geom_torsion_site_symmetry_3
 _geom_torsion_site_symmetry_4
 _geom_torsion
 _geom_torsion_publ_flag
 ? ? ? ? ? ? ? ? ? ?

loop_
 _geom_hbond_atom_site_label_D
 _geom_hbond_atom_site_label_H
 _geom_hbond_atom_site_label_A
 _geom_hbond_site_symmetry_D
 _geom_hbond_site_symmetry_H
 _geom_hbond_site_symmetry_A
 _geom_hbond_distance_DH
 _geom_hbond_distance_HA
 _geom_hbond_distance_DA
 _geom_hbond_angle_DHA
 _geom_hbond_publ_flag
 ? ? ? ? ? ? ? ? ? ? ?


#=======================================================================

# 11. STRUCTURE-FACTOR LIST

loop_
 _refln_index_h
 _refln_index_k
 _refln_index_l
 _refln_F_squared_calc
 _refln_F_squared_meas
 _refln_F_squared_sigma
 _refln_observed_status
   4   0   0 140965.00 135918.00    726.44 o
   6   0   0  61018.90  60621.00    404.55 o
   8   0   0  28964.60  30426.50    177.64 o
  10   0   0  12208.60  12123.50    102.37 o
  12   0   0    420.37    414.18     15.01 o
  14   0   0   7838.01   7852.75     76.31 o
   3   1   0    292.54    365.93     10.55 o
   5   1   0  16169.40  16296.80     70.45 o
   7   1   0  68033.50  67600.20    247.91 o
   9   1   0   8360.33   8062.25     51.17 o
  11   1   0   1933.68   2011.18     28.00 o
  13   1   0    364.11    339.13     14.60 o
   2   2   0  29300.70  30722.40    144.81 o
   4   2   0  37754.10  38499.50    151.71 o
   6   2   0   2399.49   2200.02     23.13 o
   8   2   0    429.22    454.75     14.60 o
  10   2   0   2401.92   2354.20     27.19 o
  12   2   0    168.82    183.35     12.98 o
  14   2   0    101.05     94.51     12.17 o
   1   3   0  48343.10  49944.90    181.76 o
   3   3   0  46159.20  46503.10    153.96 o
   5   3   0  22778.90  22826.20     92.95 o
   7   3   0    103.09    129.40      9.74 o
   9   3   0   2696.99   2728.89     31.65 o
  11   3   0   4566.34   4464.63     39.37 o
  13   3   0    931.61    870.58     20.28 o
   0   4   0 137858.00 147827.00    931.50 o
   2   4   0     80.34     91.27      6.49 o
   4   4   0 215749.00 208958.00    625.18 o
   6   4   0     22.66     21.50      6.49 o
   8   4   0   5169.42   5468.38     47.49 o
  10   4   0  23212.50  23233.00    105.34 o
  12   4   0      3.36     10.14     12.57 <
   1   5   0   4574.23   4696.83     25.18 o
   3   5   0 207349.00 198215.00    640.06 o
   5   5   0      9.97     14.20      6.08 o
   7   5   0  27930.00  28705.20    117.32 o
   9   5   0    629.69    630.41     16.23 o
  11   5   0  11227.60  11308.10     71.48 o
  13   5   0    129.00    135.08     12.57 o
   0   6   0  35577.80  35270.70    178.88 o
   2   6   0   7263.30   7581.03     40.23 o
   4   6   0    930.75    826.44     13.39 o
   6   6   0   9488.52   9248.34     52.41 o
   8   6   0   7173.01   7135.39     46.69 o
  10   6   0   1819.24   1818.03     28.40 o
  12   6   0   1092.36   1078.71     22.72 o
   1   7   0  10140.90   9434.31     52.04 o
   3   7   0    452.45    406.08     11.36 o
   5   7   0    856.29    865.35     15.01 o
   7   7   0  21779.30  21318.80     96.42 o
   9   7   0   2700.46   2729.58     32.87 o
  11   7   0   1438.08   1382.21     26.37 o
  13   7   0      0.72     -1.62     11.36 <
   0   8   0 119226.00 119180.00    807.03 o
   2   8   0  20911.70  20908.90    117.68 o
   4   8   0   7319.12   7690.72     52.80 o
   6   8   0   1814.44   1708.18     20.69 o
   8   8   0   2798.68   2863.55     33.27 o
  10   8   0    715.49    687.61     18.26 o
  12   8   0     38.27     34.48     10.95 o
   1   9   0  32104.50  32433.30    132.95 o
   3   9   0  22690.00  23134.10    112.76 o
   5   9   0    213.23    204.85      9.74 o
   7   9   0  49670.80  50566.10    179.96 o
   9   9   0     34.16     34.07     10.14 o
  11   9   0   3313.68   3212.02     34.49 o
   0  10   0  20373.40  20465.10    110.27 o
   2  10   0   1350.46   1316.97     16.23 o
   4  10   0    685.98    666.12     14.20 o
   6  10   0   4340.37   4303.27     32.06 o
   8  10   0     49.57     53.14      9.74 o
  10  10   0    294.17    272.60     13.79 o
   1  11   0   1013.22   1053.19     15.42 o
   3  11   0  16961.50  16673.00     87.00 o
   5  11   0   1464.63   1496.67     20.69 o
   7  11   0   1344.37   1297.42     19.88 o
   9  11   0    128.93    124.13     11.76 o
  11  11   0   3080.40   3099.49     36.92 o
   0  12   0   4846.65   4990.81     43.43 o
   2  12   0    821.04    882.36     15.01 o
   4  12   0  15572.90  15649.50     78.02 o
   6  12   0    658.43    640.15     13.79 o
   8  12   0    441.08    447.44     14.20 o
  10  12   0   1876.90   1983.49     29.62 o
   1  13   0    330.05    347.24     10.95 o
   3  13   0  17479.80  17692.40     96.73 o
   5  13   0      3.45      8.52      8.52 <
   7  13   0   4253.19   4075.91     33.28 o
   9  13   0     20.71     26.37     11.36 o
   0  14   0   1147.52   1155.41     20.69 o
   2  14   0    811.33    793.50     15.82 o
   4  14   0   4053.27   4006.53     39.77 o
   6  14   0    492.47    469.75     15.01 o
   8  14   0     24.98     45.03      9.74 o
   1  15   0   2068.21   2014.42     22.31 o
   3  15   0     15.28     18.66      8.11 o
   5  15   0    320.52    325.74     13.39 o
   7  15   0   1674.85   1651.60     25.56 o
   0  16   0   8486.12   8477.31     65.77 o
   2  16   0      1.56      8.52      8.11 <
   4  16   0   1822.05   1796.87     23.13 o
   6  16   0    510.90    532.63     17.44 o
   1  17   0    886.76    877.06     14.60 o
   3  17   0    757.40    767.11     17.04 o
   1   1   1    132.45    133.87     11.36 o
   3   1   1  24561.90  24582.20     69.14 o
   5   1   1  16284.00  16112.50     54.97 o
   7   1   1  16150.20  16204.80     65.89 o
   9   1   1   7266.05   7241.55     35.73 o
  11   1   1   1344.38   1370.86     15.82 o
  13   1   1    626.71    616.20     13.39 o
   0   2   1    574.31    483.67     25.97 o
   2   2   1 390642.00 387108.00    874.45 o
   4   2   1   4831.89   4779.29     22.75 o
   6   2   1  69010.00  68675.20    208.77 o
   8   2   1  22247.20  22448.00     63.08 o
  10   2   1   2130.82   2156.11     19.88 o
  12   2   1  11660.40  11435.50     50.76 o
  14   2   1      1.01     -0.81      8.11 <
   1   3   1  44043.80  44058.40    123.40 o
   3   3   1     84.02     88.43      4.87 o
   5   3   1  71462.90  71398.60    195.60 o
   7   3   1   2595.09   2608.14     20.70 o
   9   3   1  19491.10  19224.20     59.78 o
  11   3   1      0.28      3.65      6.90 <
  13   3   1   1306.65   1288.06     16.63 o
   0   4   1  27193.00  27926.90    141.65 o
   2   4   1   7286.77   7361.64     26.42 o
   4   4   1   9962.45   9903.80     45.13 o
   6   4   1   6086.36   6012.29     31.67 o
   8   4   1    391.13    402.01     10.55 o
  10   4   1   2352.69   2285.99     21.10 o
  12   4   1      3.17      6.90      7.30 <
   1   5   1    107.75     90.46      4.06 o
   3   5   1   5679.33   5724.24     23.96 o
   5   5   1   6574.25   6379.14     30.46 o
   7   5   1   6695.90   6622.14     34.11 o
   9   5   1   5100.22   5070.80     28.41 o
  11   5   1   1214.19   1224.78     16.63 o
  13   5   1    789.01    784.56     13.39 o
   0   6   1  18275.50  18481.80     78.23 o
   2   6   1 101106.00 103735.00    271.32 o
   4   6   1   1760.37   1730.63     14.61 o
   6   6   1  16907.40  16675.70     58.16 o
   8   6   1   4289.38   4285.91     28.00 o
  10   6   1    181.28    171.18      8.11 o
  12   6   1   4607.97   4667.65     29.62 o
   1   7   1  57478.80  57609.30    169.93 o
   3   7   1   6190.98   6287.36     32.08 o
   5   7   1  72249.10  72941.70    198.17 o
   7   7   1     19.46     19.07      6.49 o
   9   7   1  21487.10  21476.10     69.13 o
  11   7   1    420.69    403.22     10.14 o
  13   7   1   1401.04   1412.60     17.85 o
   0   8   1   7000.90   7150.95     38.99 o
   2   8   1    142.30    152.93      6.90 o
   4   8   1    938.42    969.22     12.58 o
   6   8   1   1426.66   1382.28     14.20 o
   8   8   1    535.68    550.49     12.58 o
  10   8   1   1223.05   1228.83     15.01 o
  12   8   1    295.04    294.50     10.55 o
   1   9   1   6683.49   6482.72     26.40 o
   3   9   1   1468.69   1426.55     14.20 o
   5   9   1   8420.38   8361.72     31.68 o
   7   9   1      2.40      5.27      6.49 <
   9   9   1   4457.23   4444.21     30.84 o
  11   9   1    111.33    113.99      8.92 o
   0  10   1   8291.05   8314.53     41.02 o
   2  10   1  19978.50  19350.50     61.84 o
   4  10   1   2480.04   2531.22     18.26 o
   6  10   1   4740.04   4813.21     26.38 o
   8  10   1    351.70    346.83     10.55 o
  10  10   1     16.17     20.28      7.71 o
   1  11   1  14982.40  15140.60     47.96 o
   3  11   1    788.09    803.25     11.36 o
   5  11   1  23119.90  23456.30     65.08 o
   7  11   1      6.91     10.95      6.08 <
   9  11   1   7468.86   7388.26     41.00 o
  11  11   1    142.47    150.90      9.33 o
   0  12   1     79.92     80.32      6.49 o
   2  12   1   4105.54   4114.44     23.13 o
   4  12   1    692.00    713.98     11.36 o
   6  12   1    271.99    252.72      7.71 o
   8  12   1   1868.12   1861.81     17.45 o
  10  12   1    134.00    134.67      8.52 o
   1  13   1   2513.49   2445.09     15.42 o
   3  13   1   2081.22   2109.81     18.26 o
   5  13   1   2116.95   2078.14     19.07 o
   7  13   1    210.44    206.48      7.71 o
   9  13   1   1820.87   1735.19     18.26 o
   0  14   1    228.38    210.13      8.52 o
   2  14   1   7793.52   7676.51     37.76 o
   4  14   1      2.03      3.25      5.27 <
   6  14   1   2446.46   2534.61     19.88 o
   8  14   1    343.01    347.64      9.33 o
   1  15   1   1984.21   1994.52     14.20 o
   3  15   1     79.51     84.78      7.30 o
   5  15   1   3922.00   3963.31     26.78 o
   7  15   1     48.28     44.62      6.08 o
   0  16   1    121.72    130.62      8.11 o
   2  16   1   1857.13   1808.25     18.66 o
   4  16   1    494.67    506.26     10.55 o
   6  16   1    170.93    161.85      8.11 o
   1  17   1    141.58    136.70      6.08 o
   3  17   1    146.99    161.04      7.30 o
   0   0   2 244007.00 241779.00   1383.55 o
   2   0   2   6448.29   6420.66     35.77 o
   4   0   2 290954.00 289456.00   1087.43 o
   6   0   2   3633.27   3595.07     55.20 o
   8   0   2  11342.60  11661.60     62.97 o
  10   0   2  30936.10  30902.00    109.50 o
  12   0   2    102.29     90.46     10.95 o
   1   1   2  11987.20  12113.80     37.88 o
   3   1   2  89267.70  87729.10    193.09 o
   5   1   2  11072.40  11166.00     54.88 o
   7   1   2   5953.93   5944.08     30.86 o
   9   1   2    778.46    787.42     12.98 o
  11   1   2   6058.25   5994.28     34.10 o
  13   1   2    126.21    125.75      8.92 o
   0   2   2  50976.50  51857.80    164.94 o
   2   2   2   1956.49   2009.04     12.18 o
   4   2   2   2189.15   2096.96     17.45 o
   6   2   2  11440.50  11301.90     49.99 o
   8   2   2   3872.57   3823.57     25.97 o
  10   2   2    934.27    920.49     14.20 o
  12   2   2    398.42    401.60     11.36 o
   1   3   2     57.01     50.71      3.65 o
   3   3   2   6626.59   6604.08     30.06 o
   5   3   2  18406.90  18027.90     72.45 o
   7   3   2  22622.50  22776.80     73.26 o
   9   3   2   9258.82   9414.19     44.67 o
  11   3   2    608.73    595.11     12.98 o
  13   3   2      1.84      4.46      8.11 <
   0   4   2 370738.00 368143.00   1128.16 o
   2   4   2   8452.72   8478.85     29.27 o
   4   4   2  45372.40  45849.60    151.85 o
   6   4   2  16895.50  17315.70     64.67 o
   8   4   2  10896.40  10944.80     47.12 o
  10   4   2   4778.66   4821.12     32.06 o
  12   4   2     31.68     30.42      8.52 o
   1   5   2  46861.40  46816.90    118.49 o
   3   5   2  28772.10  29833.70     96.29 o
   5   5   2      3.65      5.68      5.27 <
   7   5   2  73696.90  73984.10    197.52 o
   9   5   2    409.67    412.56      9.74 o
  11   5   2   4006.70   3935.45     30.43 o
  13   5   2   1140.74   1133.87     15.42 o
   0   6   2   6759.33   6151.23     36.97 o
   2   6   2  20217.00  20206.20     65.16 o
   4   6   2  16820.10  17001.00     61.02 o
   6   6   2    548.68    525.35     10.14 o
   8   6   2   1687.87   1643.18     15.42 o
  10   6   2    370.09    382.53      9.33 o
  12   6   2    594.15    589.43     12.58 o
   1   7   2   1413.07   1353.57     10.55 o
   3   7   2  25051.90  25059.60     80.25 o
   5   7   2    421.71    426.35      8.11 o
   7   7   2   1005.19   1013.01     14.20 o
   9   7   2    153.52    141.98      7.30 o
  11   7   2   3814.92   3835.48     26.38 o
   0   8   2  13663.80  14282.10     59.36 o
   2   8   2   5719.05   5856.38     24.36 o
   4   8   2  38525.60  39036.00    108.10 o
   6   8   2   2217.54   2232.47     18.26 o
   8   8   2    360.10    373.61      9.74 o
  10   8   2   4893.38   5030.30     28.41 o
  12   8   2     88.98     96.95      8.11 o
   1   9   2   4315.31   4469.83     21.11 o
   3   9   2  69792.90  68919.30    192.14 o
   5   9   2    342.15    342.78      8.52 o
   7   9   2  15149.20  15295.90     58.92 o
   9   9   2    419.83    417.02     10.14 o
  11   9   2   5532.42   5534.40     30.84 o
   0  10   2     55.97     47.87      6.90 o
   2  10   2     16.47     17.04      5.27 o
   4  10   2   4207.00   4277.73     23.54 o
   6  10   2      9.34     13.79      6.08 o
   8  10   2    822.59    853.13     14.60 o
  10  10   2   2530.80   2598.72     21.10 o
   1  11   2   8776.05   8654.70     32.89 o
   3  11   2    627.47    618.24      9.33 o
   5  11   2    878.16    877.08     11.76 o
   7  11   2   7877.47   7854.65     38.97 o
   9  11   2     59.06     67.74      7.71 o
   0  12   2  23415.90  23580.30    106.57 o
   2  12   2   2507.66   2462.55     17.45 o
   4  12   2   2560.87   2604.54     17.04 o
   6  12   2    375.76    409.71      9.74 o
   8  12   2   1288.90   1345.67     17.85 o
   1  13   2   3583.41   3609.18     20.70 o
   3  13   2   3299.62   3238.55     19.88 o
   5  13   2     33.71     37.32      5.27 o
   7  13   2   9497.17   9736.16     40.60 o
   9  13   2     61.23     62.47      7.71 o
   0  14   2   8024.58   8106.50     46.28 o
   2  14   2    102.79    105.06      6.08 o
   4  14   2    272.00    258.80      7.30 o
   6  14   2   2294.31   2444.49     19.88 o
   8  14   2     58.83     50.71      7.71 o
   1  15   2    171.09    166.32      6.90 o
   3  15   2   1826.87   1794.86     15.01 o
   5  15   2    386.25    390.24      8.52 o
   0  16   2   2139.17   2079.71     23.13 o
   2  16   2    114.41    122.50      6.49 o
   4  16   2   4231.83   4275.79     24.75 o
   1  17   2     91.67     98.57      6.08 o
   1   1   3     36.30     36.51      4.06 o
   3   1   3  12273.40  12331.30     59.37 o
   5   1   3   9083.50   8879.68     39.81 o
   7   1   3  10075.50   9993.16     42.65 o
   9   1   3   4793.15   4894.75     28.82 o
  11   1   3    919.21    920.48     15.01 o
  13   1   3    412.59    405.25     11.36 o
   0   2   3    403.64    382.15     10.95 o
   2   2   3 200922.00 211198.00    549.48 o
   4   2   3   2853.20   2840.95     22.32 o
   6   2   3  40262.80  41606.40    119.17 o
   8   2   3  14409.50  14403.90     56.89 o
  10   2   3   1513.78   1489.34     17.04 o
  12   2   3   7507.09   7627.18     40.59 o
   1   3   3  21556.40  21509.90     74.98 o
   3   3   3      0.07      1.22      4.87 <
   5   3   3  40351.30  40573.80    120.03 o
   7   3   3   1724.57   1702.06     17.04 o
   9   3   3  13377.30  13616.10     56.88 o
  11   3   3      0.64      0.00      8.11 <
  13   3   3    830.90    845.82     15.82 o
   0   4   3  16366.00  16299.90    103.37 o
   2   4   3   3391.03   3376.71     23.95 o
   4   4   3   5438.15   5195.72     28.01 o
   6   4   3   4667.87   4699.63     27.60 o
   8   4   3    165.29    169.97      8.52 o
  10   4   3   1392.33   1395.20     18.66 o
  12   4   3      1.59      9.33      8.92 <
   1   5   3    147.08    149.68      7.71 o
   3   5   3   4388.08   4281.07     26.39 o
   5   5   3   4727.21   4864.19     26.39 o
   7   5   3   3877.14   3861.56     25.57 o
   9   5   3   2683.50   2693.02     23.13 o
  11   5   3    714.76    694.91     14.60 o
   0   6   3   8440.10   8359.47     63.78 o
   2   6   3  55788.40  55104.10    154.76 o
   4   6   3   1280.00   1314.53     13.79 o
   6   6   3  12429.60  12523.40     46.72 o
   8   6   3   2292.82   2342.37     19.88 o
  10   6   3     74.86     83.16      7.71 o
  12   6   3   3473.21   3478.18     28.40 o
   1   7   3  35817.90  35505.70     99.95 o
   3   7   3   2656.19   2558.17     17.04 o
   5   7   3  47681.10  48058.10    142.88 o
   7   7   3     49.08     42.59      6.08 o
   9   7   3  12604.10  12402.60     51.18 o
  11   7   3    349.12    358.60     10.95 o
   0   8   3   2970.91   2965.72     30.03 o
   2   8   3      5.36      3.65      5.68 <
   4   8   3    761.11    791.48     10.95 o
   6   8   3    453.42    442.17      9.74 o
   8   8   3    195.49    194.31      8.52 o
  10   8   3    978.08    934.68     13.79 o
   1   9   3   3635.41   3529.20     22.32 o
   3   9   3   1647.81   1674.03     14.61 o
   5   9   3   4521.71   4437.66     28.41 o
   7   9   3      2.26      3.25      6.08 <
   9   9   3   3699.02   3643.93     26.78 o
  11   9   3    110.16    114.39      8.11 o
   0  10   3   6682.10   6870.09     54.00 o
   2  10   3  13863.00  13811.10     48.76 o
   4  10   3   1362.65   1418.75     15.42 o
   6  10   3   2220.93   2237.64     21.91 o
   8  10   3    366.43    371.98     10.14 o
  10  10   3     37.17     37.72      7.71 o
   1  11   3   8794.56   8756.30     42.23 o
   3  11   3    981.29   1005.69     11.76 o
   5  11   3  13667.50  13795.50     54.84 o
   7  11   3     21.86     16.23      7.30 o
   9  11   3   5842.49   5838.12     36.53 o
   0  12   3      0.32     -0.41      9.74 <
   2  12   3   3146.19   3124.50     20.69 o
   4  12   3    571.48    572.80      9.74 o
   6  12   3     41.39     41.78      6.49 o
   8  12   3   1498.22   1527.84     17.85 o
   1  13   3   1928.69   1933.67     20.29 o
   3  13   3    915.68    953.34     11.76 o
   5  13   3   1768.59   1731.97     17.45 o
   7  13   3    202.19    190.65      9.33 o
   0  14   3     37.22     39.35      9.74 o
   2  14   3   4661.46   4681.96     28.41 o
   4  14   3      9.63      9.74      5.68 <
   6  14   3   2129.59   2151.51     20.29 o
   1  15   3   1490.07   1447.52     15.82 o
   3  15   3      4.68     12.17      5.68 o
   5  15   3   2972.93   2968.82     20.69 o
   0  16   3    182.14    162.26     12.17 o
   2  16   3   1063.37   1041.78     13.79 o
   0   0   4 261107.00 257651.00   1322.63 o
   2   0   4     11.88     10.14      7.71 <
   4   0   4  53909.60  54486.20    199.59 o
   6   0   4  17741.30  17939.90     88.64 o
   8   0   4  11634.10  11925.50     65.39 o
  10   0   4   6241.80   6228.39     53.17 o
  12   0   4    141.92    150.09     12.57 o
   1   1   4   2150.32   2052.90     15.83 o
   3   1   4   1098.78   1177.38     12.98 o
   5   1   4   6026.95   6084.95     32.07 o
   7   1   4  21846.60  21970.30     69.14 o
   9   1   4   2652.43   2738.44     21.50 o
  11   1   4    969.75    920.48     15.42 o
   0   2   4   2289.47   2148.31     25.57 o
   2   2   4   6759.21   6559.65     28.83 o
   4   2   4   8990.68   8977.94     39.81 o
   6   2   4    172.35    176.46      7.71 o
   8   2   4    219.15    198.36      8.92 o
  10   2   4    640.21    682.73     12.98 o
  12   2   4    122.63    105.47      8.92 o
   1   3   4  10678.80  10417.80     46.32 o
   3   3   4   9461.85   9701.25     39.40 o
   5   3   4   7739.27   7704.80     35.33 o
   7   3   4    328.42    289.64      9.33 o
   9   3   4   1640.30   1585.11     18.66 o
  11   3   4   1850.23   1877.62     21.91 o
   0   4   4  52408.40  50359.70    265.07 o
   2   4   4    176.48    188.63      7.71 o
   4   4   4  67308.50  68161.60    161.76 o
   6   4   4    150.53    139.14      6.90 o
   8   4   4   2327.88   2332.21     22.72 o
  10   4   4   8708.60   8930.28     45.88 o
  12   4   4      1.42      0.81      8.92 <
   1   5   4   2798.16   2843.53     19.48 o
   3   5   4  61208.20  61324.80    145.26 o
   5   5   4     25.53     23.93      5.27 o
   7   5   4  13642.20  13555.20     51.19 o
   9   5   4    122.00    139.14      8.92 o
  11   5   4   4796.01   4903.82     33.68 o
   0   6   4   7993.02   8253.37     53.20 o
   2   6   4   3385.19   3409.00     20.70 o
   4   6   4     20.64     24.34      4.87 o
   6   6   4   2548.30   2644.35     19.07 o
   8   6   4   2867.60   2890.23     21.51 o
  10   6   4    510.82    554.13     12.58 o
   1   7   4   2478.33   2444.40     19.07 o
   3   7   4     24.76     20.28      4.87 o
   5   7   4    368.10    356.17      8.92 o
   7   7   4   7424.23   7515.56     33.69 o
   9   7   4    884.01    917.23     13.39 o
  11   7   4    744.32    737.09     14.20 o
   0   8   4  37539.10  37670.80    153.67 o
   2   8   4   7058.92   7162.27     30.04 o
   4   8   4   4090.03   4051.47     22.73 o
   6   8   4    329.84    348.86      8.52 o
   8   8   4   1119.02   1138.76     13.79 o
  10   8   4    466.10    443.38     10.55 o
   1   9   4  10839.60  10995.50     41.43 o
   3   9   4  11494.60  11281.30     41.43 o
   5   9   4     94.22     97.35      6.08 o
   7   9   4  19243.80  19469.50     64.62 o
   9   9   4      0.86      0.81      6.49 <
   0  10   4   5999.63   6024.24     42.22 o
   2  10   4    376.62    387.40      8.52 o
   4  10   4     90.50     96.14      5.68 o
   6  10   4   1361.89   1388.29     15.82 o
   8  10   4     35.39     32.86      6.90 o
   1  11   4    719.25    668.14     10.55 o
   3  11   4   5870.11   5967.77     29.22 o
   5  11   4    644.41    633.65     10.14 o
   7  11   4    866.53    838.52     13.79 o
   0  12   4   2812.82   2620.37     27.19 o
   2  12   4    433.42    422.70      9.33 o
   4  12   4   5885.22   6010.93     30.85 o
   6  12   4    177.07    193.09      8.11 o
   1  13   4    241.85    212.56      8.11 o
   3  13   4   6671.32   6920.87     32.88 o
   5  13   4      2.02      6.49      6.08 <
   0  14   4    728.62    673.00     15.82 o
   2  14   4    319.47    352.92      9.33 o
   4  14   4   1521.02   1532.71     15.42 o
   1  15   4    807.28    815.39     11.76 o
   3  15   4     36.01     28.39      6.49 o
   1   1   5     16.56     16.63      4.46 o
   3   1   5   4866.13   4898.42     28.41 o
   5   1   5   3588.82   3598.37     27.60 o
   7   1   5   4063.52   4115.00     27.19 o
   9   1   5   1916.32   1886.17     18.66 o
  11   1   5    404.09    399.98     10.95 o
   0   2   5     40.60     35.29      6.08 o
   2   2   5  72024.10  73485.20     97.89 o
   4   2   5   1039.70   1045.47     14.20 o
   6   2   5  17443.10  17679.10     66.25 o
   8   2   5   5751.58   5919.30     34.50 o
  10   2   5    644.72    661.64     12.98 o
   1   3   5   8389.51   8281.98     34.52 o
   3   3   5     29.63     28.80      5.27 o
   5   3   5  16838.90  17058.10     66.25 o
   7   3   5    591.49    601.60     12.17 o
   9   3   5   5210.93   5360.33     33.28 o
  11   3   5      0.30      1.22      8.92 <
   0   4   5   4937.98   4982.88     36.94 o
   2   4   5   1745.29   1785.22     15.42 o
   4   4   5   2439.12   2422.38     19.88 o
   6   4   5   1384.97   1386.69     15.82 o
   8   4   5    150.98    154.96      8.52 o
  10   4   5    739.17    713.97     14.60 o
   1   5   5      9.43     11.76      5.68 o
   3   5   5   1038.68   1058.04     12.98 o
   5   5   5   1410.01   1437.41     15.82 o
   7   5   5   1864.30   1869.14     18.26 o
   9   5   5   1611.45   1613.87     18.66 o
   0   6   5   4515.83   4557.86     36.93 o
   2   6   5  23560.80  23651.50     74.44 o
   4   6   5    382.18    385.78      8.92 o
   6   6   5   4003.76   4034.56     25.97 o
   8   6   5   1251.10   1293.33     15.42 o
  10   6   5     81.74     75.86      8.52 o
   1   7   5  13194.70  13566.50     51.19 o
   3   7   5   1958.93   1972.25     17.04 o
   5   7   5  17967.30  18263.60     63.81 o
   7   7   5      3.63      5.68      6.49 <
   9   7   5   6706.61   6509.46     34.91 o
   0   8   5   2059.39   2071.27     25.56 o
   2   8   5     51.62     51.92      6.90 o
   4   8   5    209.46    209.32      7.30 o
   6   8   5    555.65    538.31     11.36 o
   8   8   5    184.03    168.34      7.71 o
   1   9   5   1933.04   1922.32     18.26 o
   3   9   5    266.37    257.18      8.11 o
   5   9   5   2589.50   2576.47     19.07 o
   7   9   5      6.82      5.68      6.49 <
   0  10   5   1852.01   1866.70     21.50 o
   2  10   5   4930.98   5000.78     27.60 o
   4  10   5    766.86    762.25     11.36 o
   6  10   5   1622.61   1542.47     16.23 o
   8  10   5     70.64     77.48      7.71 o
   1  11   5   4284.34   4275.19     24.35 o
   3  11   5    135.41    133.86      7.30 o
   5  11   5   6909.55   6901.79     31.66 o
   7  11   5      0.00      2.84      6.49 <
   0  12   5     73.67     73.02      8.52 o
   2  12   5   1008.37   1010.95     12.58 o
   4  12   5    171.93    174.02      7.71 o
   6  12   5    143.57    124.53      6.90 o
   1  13   5    689.93    671.78     10.95 o
   3  13   5    787.17    788.62     12.58 o
   0  14   5    113.67    101.82     10.55 o
   0   0   6  40325.40  40407.00    262.05 o
   2   0   6    458.96    442.17     14.20 o
   4   0   6  36003.90  36696.40    156.78 o
   6   0   6   1576.19   1527.07     27.59 o
   8   0   6   2355.52   2324.01     35.70 o
   1   1   6    549.99    526.15      9.74 o
   3   1   6   7399.02   7338.41     36.94 o
   5   1   6   1508.66   1483.25     17.45 o
   7   1   6   1929.37   1862.23     22.31 o
   9   1   6    351.68    330.20     11.76 o
   0   2   6   3014.47   2874.96     27.19 o
   2   2   6    654.16    671.38     10.55 o
   4   2   6      2.20      0.00      6.49 <
   6   2   6    874.67    882.75     14.60 o
   8   2   6    628.08    655.55     13.79 o
   1   3   6    161.36    179.30      6.49 o
   3   3   6     94.44     77.88      6.08 o
   5   3   6   3149.33   3191.39     25.16 o
   7   3   6   2523.72   2619.84     22.72 o
   9   3   6   1305.40   1373.25     17.85 o
   0   4   6  40790.80  41234.00    156.47 o
   2   4   6    675.41    657.59     10.14 o
   4   4   6   9870.12   9892.77     43.85 o
   6   4   6   1633.86   1572.92     17.85 o
   8   4   6   1955.93   1905.22     19.47 o
   1   5   6   5064.04   5051.36     28.82 o
   3   5   6   7371.02   7417.58     32.88 o
   5   5   6      0.46     -2.43      6.90 <
   7   5   6  11001.00  11287.70     48.73 o
   0   6   6     98.01     90.05      8.92 o
   2   6   6   2514.80   2513.19     19.88 o
   4   6   6   1697.35   1682.47     15.82 o
   6   6   6      3.25      2.84      6.90 <
   8   6   6    393.62    377.26     10.55 o
   1   7   6     18.37     19.07      6.49 o
   3   7   6   2436.44   2439.30     19.88 o
   5   7   6     55.19     53.14      7.30 o
   7   7   6    500.17    482.73     11.76 o
   0   8   6   3924.86   3761.33     34.90 o
   2   8   6   1311.33   1328.64     15.42 o
   4   8   6   5196.75   5288.46     29.22 o
   6   8   6    164.82    166.72      8.52 o
   1   9   6   1281.54   1253.17     15.01 o
   3   9   6   9980.89  10223.00     44.26 o
   5   9   6     83.26     75.86      6.90 o
   0  10   6     60.14     50.71      9.74 o
   2  10   6      1.86      5.27      6.49 <
   4  10   6    418.46    432.02     10.14 o
   1  11   6   1279.25   1320.51     15.42 o
   3  11   6    387.24    365.09      8.92 o
   0  12   6   3561.62   3706.63     32.46 o
   1   1   7      0.73     -1.22      6.08 <
   3   1   7   1260.17   1279.95     15.82 o
   5   1   7    932.02    929.81     13.79 o
   7   1   7   1230.69   1251.13     16.23 o
   0   2   7     21.63     16.63      7.30 o
   2   2   7  20157.90  20357.90     66.66 o
   4   2   7    338.27    335.88      9.74 o
   6   2   7   4872.00   4901.01     30.03 o
   1   3   7   2141.62   2060.67     17.45 o
   3   3   7      1.48      1.22      6.08 <
   5   3   7   4503.22   4415.56     29.62 o
   7   3   7    198.96    189.84      9.74 o
   0   4   7   1745.77   1752.25     21.50 o
   2   4   7    410.68    404.03      8.92 o
   4   4   7    636.23    653.52     11.76 o
   6   4   7    597.47    582.53     12.17 o
   1   5   7     14.40     10.95      6.49 <
   3   5   7    496.26    486.39      9.74 o
   5   5   7    540.03    556.16     12.17 o
   0   6   7    888.93    906.27     19.88 o
   2   6   7   6125.65   6231.26     31.66 o
   4   6   7    160.75    153.74      7.30 o
   1   7   7   4170.69   4139.48     28.00 o
   3   7   7    345.64    364.28      9.33 o
   5   7   7   5901.41   5927.30     33.68 o
   0   8   7    331.46    361.44     15.01 o
   2   8   7      0.07      1.62      6.49 <
   1   9   7    469.12    493.28     10.95 o
   0   0   8  15496.80  14875.60    151.91 o
   2   0   8     24.73     27.99      8.92 o
   1   1   8     21.38     20.69      6.49 o
   3   1   8    405.80    419.04     10.95 o
   0   2   8      2.41      5.68      8.52 <
   2   2   8    353.49    343.18      9.74 o
   1   3   8    460.92    419.85      9.33 o
   0   4   8   5688.56   5764.06     41.80 o


# For import please use the tool of Jana2020 program:
# "Structure->New->from Jana2020 embedded in CIF"


_Jana_m40_file
;
    4    0    0    1    0
 0.496512 0.000000 0.000000 0.000000 0.000000 0.000000      100000
 0.000000 0.000000 0.000000                                 000
 0.000000 0.000000 0.000000 0.000000 0.000000 0.000000      000000
 0.108838 0.000000 0.000000 0.000000 0.000000 0.000000      100000
i01       2  3     0.250000 0.500000 0.620101 1.250000
 0.034878 0.029677 0.034892 0.000000 0.000000 0.000000      0010111000
 0.000000-0.000052 0.000000 0.000000 0.000000 0.000000      010000
-0.000089 0.000000-0.000260 0.000000                        1010
i002      2  3     0.500000 0.216946 0.619438 0.750000
 0.045450 0.057387 0.035556 0.019192 0.000000 0.000000      0110111100
-0.000143-0.000229 0.000000-0.000186 0.000000-0.000500      110101
-0.000340 0.000000-0.000262 0.000000                        1010
cs00      3  3     0.250000 0.500000 0.827614 1.750000
 0.058819 0.074821 0.034465 0.000000 0.000000 0.000000      0010111000
 0.000000-0.000723 0.000000 0.000000 0.000000 0.000000      010000
 0.000438 0.000000 0.000267 0.000000                        1010
cu04      1  3     0.500000 0.350180 0.500000 1.000000
 0.053850 0.050450 0.062707 0.000000 0.000000 0.009227      0100111001
-0.001199 0.000000 0.000000-0.000636-0.003461-0.005455      100111
 0.000000 0.000000 0.000000 0.000000                        0000
--------------------------   s.u. block   --------------------------------------
 0.000799 0.000000 0.000000 0.000000 0.000000 0.000000
 0.000000 0.000000 0.000000
 0.000000 0.000000 0.000000 0.000000 0.000000 0.000000
 0.012565 0.000000 0.000000 0.000000 0.000000 0.000000
i01                0.000000 0.000000 0.000029 0.000000
 0.000120 0.000104 0.000120 0.000000 0.000000 0.000000
 0.000000 0.000023 0.000000 0.000000 0.000000 0.000000
 0.000026 0.000000 0.000066 0.000000
i002               0.000000 0.000044 0.000029 0.000000
 0.000119 0.000123 0.000105 0.000058 0.000000 0.000000
 0.000061 0.000027 0.000000 0.000023 0.000000 0.000089
 0.000031 0.000000 0.000063 0.000000
cs00               0.000000 0.000000 0.000048 0.000000
 0.000159 0.000180 0.000115 0.000000 0.000000 0.000000
 0.000000 0.000047 0.000000 0.000000 0.000000 0.000000
 0.000062 0.000000 0.000106 0.000000
cu04               0.000000 0.000080 0.000000 0.000000
 0.000207 0.000194 0.000237 0.000000 0.000000 0.000142
 0.000136 0.000000 0.000000 0.000043 0.000079 0.000238
 0.000000 0.000000 0.000000 0.000000
--------------------------   Saved points   ------------------------------------
    0
--------------------------   Critical points   ---------------------------------
    0
--------------------------   Fourier maxima   ----------------------------------
    1    1    1
Max1      1  1     1.000000 0.500000 0.156190 0.249970      000  0  0  0
     0.22     0.18
Max2      1  1     1.000000 0.140411 0.091250 0.108657      000  0  0  0
     0.15     0.14
Max3      1  1     1.000000 0.371335 0.157368 0.249982      000  0  0  0
     0.13     0.12
Max4      1  1     1.000000 0.367808 0.401106 0.115362      000  0  0  0
     0.16     0.12
Max5      1  1     1.000000 0.000000 0.179250 0.249974      000  0  0  0
     0.17     0.11
Max6      1  1     1.000000 0.253410 0.126162 0.100533      000  0  0  0
     0.15     0.11
Max7      1  1     1.000000 0.500000 0.318771 0.074547      000  0  0  0
     0.14     0.11
Max8      1  1     1.000000 0.000000 0.391086 0.092630      000  0  0  0
     0.13     0.10
Max9      1  1     1.000000 0.254460 0.374675 0.249968      000  0  0  0
     0.16     0.10
Max10     1  1     1.000000 0.343679 0.190685 0.004781      000  0  0  0
     0.11     0.08
--------------------------   Fourier minima   ----------------------------------
    1    1    1
Min1      1  1     1.000000 0.500000 0.038285 0.108989      000  0  0  0
     0.18     0.17
Min2      1  1     1.000000 0.500000 0.418078 0.249972      000  0  0  0
     0.21     0.16
Min3      1  1     1.000000 0.278434 0.295465 0.101575      000  0  0  0
     0.15     0.15
Min4      1  1     1.000000 0.151177 0.000000 0.000000      000  0  0  0
     0.19     0.15
Min5      1  1     1.000000 0.000000 0.420144 0.249969      000  0  0  0
     0.19     0.14
--------------------------------------------------------------------------------
;


_Jana_m50_file
;
Version Jana2020
title 240202_cscu2i3_50kev_100k-400k__a.res in cmcm
cell 10.5567 13.1844 6.1021 90 90 90
esdcell 0.0002 0.0003 0.0001 0 0 0
spgroup Cmcm 63 3
lattice C
symmetry x y z
symmetry -x -y z+1/2
symmetry -x y -z+1/2
symmetry x -y -z
symmetry -x -y -z
symmetry x y -z+1/2
symmetry x -y z+1/2
symmetry -x y z
unitsnumb 16
atlist Cu0.625 I0.938 Cs0.312
formtab -62
atom Cu atradius 1.28 color 34071220
atom I atradius 1.33 color 142031138
atom Cs atradius 2.72 color 14254185
roundmethod 1
end
*******************************************************************************
refine
  cycles 100 siglevel 2
  iext 1 itypex 1 idistr 1 radius 0.01
  !fixed all *
end refine
fourier
end fourier
dist
end dist
contour
end contour
;
